5
	Energy:       0.0263821
C         -0.08036        1.64195       -0.00000
H          1.01184        1.64195        0.00000
H         -0.44442        0.76767       -0.54406
H         -0.44442        2.55025       -0.48512
H         -0.44442        1.60792        1.02917
