run                                                                     
SP        UHF                                                         Gen                 
Number of atoms                            I                2
Info1-9                                    I   N=           9
          32          32           0           0           0         110
           1           1           2
Charge                                     I                0
Multiplicity                               I                1
Number of electrons                        I               14
Number of alpha electrons                  I                7
Number of beta electrons                   I                7
Number of basis functions                  I               10
Number of independent functions            I               10
Number of point charges in /Mol/           I                0
Number of translation vectors              I                0
Atomic numbers                             I   N=           2
           7           7
Nuclear charges                            R   N=           2
  7.05000000E+00  7.00000000E+00
Current cartesian coordinates              R   N=           6
  0.00000000E+00  0.00000000E+00  0.00000000E+00  0.00000000E+00  0.00000000E+00
  1.88972613E+00
Force Field                                I                0
Int Atom Types                             I   N=           2
           0           0
MM charges                                 R   N=           2
  0.00000000E+00  0.00000000E+00
Integer atomic weights                     I   N=           2
          14          14
Real atomic weights                        R   N=           2
  1.40030740E+01  1.40030740E+01
Atom fragment info                         I   N=           2
           0           0
Atom residue num                           I   N=           2
           0           0
Nuclear spins                              I   N=           2
           2           2
Nuclear ZEff                               R   N=           2
 -4.55000000E+00 -4.55000000E+00
Nuclear ZNuc                               R   N=           2
  7.00000000E+00  7.00000000E+00
Nuclear QMom                               R   N=           2
  2.04400000E+00  2.04400000E+00
Nuclear GFac                               R   N=           2
  4.03761000E-01  4.03761000E-01
MicOpt                                     I   N=           2
          -1          -1
Number of contracted shells                I                4
Number of primitive shells                 I               12
Pure/Cartesian d shells                    I                0
Pure/Cartesian f shells                    I                0
Highest angular momentum                   I                1
Largest degree of contraction              I                3
Shell types                                I   N=           4
           0          -1           0          -1
Number of primitives per shell             I   N=           4
           3           3           3           3
Shell to atom map                          I   N=           4
           1           1           2           2
Primitive exponents                        R   N=          12
  9.91061690E+01  1.80523124E+01  4.88566024E+00  3.78045588E+00  8.78496645E-01
  2.85714374E-01  9.91061690E+01  1.80523124E+01  4.88566024E+00  3.78045588E+00
  8.78496645E-01  2.85714374E-01
Contraction coefficients                   R   N=          12
  1.54328967E-01  5.35328142E-01  4.44634542E-01 -9.99672292E-02  3.99512826E-01
  7.00115469E-01  1.54328967E-01  5.35328142E-01  4.44634542E-01 -9.99672292E-02
  3.99512826E-01  7.00115469E-01
P(S=P) Contraction coefficients            R   N=          12
  0.00000000E+00  0.00000000E+00  0.00000000E+00  1.55916275E-01  6.07683719E-01
  3.91957393E-01  0.00000000E+00  0.00000000E+00  0.00000000E+00  1.55916275E-01
  6.07683719E-01  3.91957393E-01
Coordinates of each shell                  R   N=          12
  0.00000000E+00  0.00000000E+00  0.00000000E+00  0.00000000E+00  0.00000000E+00
  0.00000000E+00  0.00000000E+00  0.00000000E+00  1.88972613E+00  0.00000000E+00
  0.00000000E+00  1.88972613E+00
Constraint Structure                       R   N=           6
  0.00000000E+00  0.00000000E+00  0.00000000E+00  0.00000000E+00  0.00000000E+00
  1.88972613E+00
Num ILSW                                   I              100
ILSW                                       I   N=         100
           1           0           0           0           2           0
           0           0           0           0           0          -1
           0           0           0           0           0           0
           0           0           1           0           0           0
           1           1           0           0           0           8
           0           0      100000           0          -1           0
           0           0           0           0           0           0
           0           0           0           1           0           0
           0           0           1           0           0           0
           0           0           4          41           0           0
           0           0           0           0           0           0
           0           0           0           0           0           0
           0           0           0           0           0           0
           0           0           0           0           0           0
           0           0           0           0           0           0
           0           0           0           0           0           0
           0           0           0           0
Num RLSW                                   I               41
RLSW                                       R   N=          41
  1.00000000E+00  1.00000000E+00  1.00000000E+00  1.00000000E+00  1.00000000E+00
  0.00000000E+00  0.00000000E+00  1.00000000E+00  0.00000000E+00  0.00000000E+00
  0.00000000E+00  0.00000000E+00  1.00000000E+00  0.00000000E+00  0.00000000E+00
  0.00000000E+00  0.00000000E+00  1.00000000E+00  0.00000000E+00  0.00000000E+00
  0.00000000E+00  0.00000000E+00  1.00000000E+00  0.00000000E+00  0.00000000E+00
  0.00000000E+00  0.00000000E+00  1.00000000E+00  0.00000000E+00  0.00000000E+00
  0.00000000E+00  0.00000000E+00  1.00000000E+00  0.00000000E+00  0.00000000E+00
  0.00000000E+00  0.00000000E+00  0.00000000E+00  1.00000000E+00  1.00000000E+00
  0.00000000E+00
MxBond                                     I                1
NBond                                      I   N=           2
           1           1
IBond                                      I   N=           2
           2           1
RBond                                      R   N=           2
  3.00000000E+00  3.00000000E+00
Virial Ratio                               R      2.016597961197279E+00
SCF Energy                                 R     -1.083163164983237E+02
Total Energy                               R     -1.083163164983237E+02
S**2                                       R      9.769962616701378E-15
S**2 after annihilation                    R     -1.953992523340279E-14
RMS Density                                R      4.702716461437647E-09
External E-field                           R   N=          35
  0.00000000E+00  0.00000000E+00  0.00000000E+00  0.00000000E+00  0.00000000E+00
  0.00000000E+00  0.00000000E+00  0.00000000E+00  0.00000000E+00  0.00000000E+00
  0.00000000E+00  0.00000000E+00  0.00000000E+00  0.00000000E+00  0.00000000E+00
  0.00000000E+00  0.00000000E+00  0.00000000E+00  0.00000000E+00  0.00000000E+00
  0.00000000E+00  0.00000000E+00  0.00000000E+00  0.00000000E+00  0.00000000E+00
  0.00000000E+00  0.00000000E+00  0.00000000E+00  0.00000000E+00  0.00000000E+00
  0.00000000E+00  0.00000000E+00  0.00000000E+00  0.00000000E+00  0.00000000E+00
IOpCl                                      I                1
IROHF                                      I                0
Alpha Orbital Energies                     R   N=          10
 -1.58632318E+01 -1.56039660E+01 -1.58404864E+00 -7.46067792E-01 -6.81342980E-01
 -6.81342980E-01 -5.99976773E-01  2.91917894E-01  2.91917894E-01  1.33769362E+00
Beta Orbital Energies                      R   N=          10
 -1.58632318E+01 -1.56039660E+01 -1.58404864E+00 -7.46067792E-01 -6.81342980E-01
 -6.81342980E-01 -5.99976773E-01  2.91917894E-01  2.91917894E-01  1.33769362E+00
Alpha MO coefficients                      R   N=         100
  9.94871546E-01  2.58871437E-02  1.97621937E-16 -3.28546316E-17  9.15887585E-03
  8.92602431E-03 -1.02448853E-02 -1.35559417E-16 -3.05434024E-16  4.57616818E-03
 -9.50988470E-03 -1.29166480E-02 -4.74183956E-16  4.17589920E-16 -5.91189623E-03
  9.93978146E-01  3.07932878E-02  1.05022558E-15 -2.66880528E-16 -1.07129057E-02
 -1.83477764E-01  4.68340002E-01  3.86675618E-16 -1.69004864E-15  2.72491033E-01
 -1.82555517E-01  4.47874490E-01  4.21796429E-16  8.89970820E-16 -2.66961942E-01
 -1.65670064E-01  7.34419203E-01 -1.40747895E-15 -1.10468433E-15 -3.06492472E-01
  1.67393152E-01 -7.23991815E-01 -9.81979213E-16 -1.85322468E-15 -2.79737340E-01
  4.62972379E-17 -7.44115036E-16  6.01887560E-01  1.41911209E-01  3.27575823E-15
  8.02225258E-16 -4.74869092E-15  5.88193670E-01  1.38682505E-01 -3.94378877E-15
 -7.11075541E-16  2.64685390E-15 -1.41911209E-01  6.01887560E-01 -2.72548699E-15
 -1.40154258E-16  7.90114247E-16 -1.38682505E-01  5.88193670E-01  1.25693964E-15
 -6.15277471E-02  4.12498898E-01  3.43915594E-15  3.21118597E-16 -6.01419673E-01
 -6.90504780E-02  4.46155814E-01  4.32749068E-15 -2.62787431E-15  6.07671624E-01
 -1.01254628E-16  4.87498756E-16 -1.31120421E-01 -8.53876392E-01 -8.22893407E-16
  6.89322466E-17  2.29781543E-16  1.32623030E-01  8.63661615E-01  7.68619399E-16
  4.16210654E-17 -3.15980342E-16 -8.53876392E-01  1.31120421E-01  6.51811096E-16
 -1.81916499E-16 -1.07257244E-16  8.63661615E-01 -1.32623030E-01 -2.87723830E-16
  1.21406788E-01 -1.58148910E+00 -4.14771325E-16 -3.20331494E-17 -1.38307612E+00
 -1.23727852E-01  1.58301930E+00  1.07267971E-16 -1.30264910E-16 -1.38707997E+00
Beta MO coefficients                       R   N=         100
  9.94871546E-01  2.58871437E-02  1.97621937E-16 -3.28546316E-17  9.15887585E-03
  8.92602431E-03 -1.02448853E-02 -1.35559417E-16 -3.05434024E-16  4.57616818E-03
 -9.50988470E-03 -1.29166480E-02 -4.74183956E-16  4.17589920E-16 -5.91189623E-03
  9.93978146E-01  3.07932878E-02  1.05022558E-15 -2.66880528E-16 -1.07129057E-02
 -1.83477764E-01  4.68340002E-01  3.86675618E-16 -1.69004864E-15  2.72491033E-01
 -1.82555517E-01  4.47874490E-01  4.21796429E-16  8.89970820E-16 -2.66961942E-01
 -1.65670064E-01  7.34419203E-01 -1.40747895E-15 -1.10468433E-15 -3.06492472E-01
  1.67393152E-01 -7.23991815E-01 -9.81979213E-16 -1.85322468E-15 -2.79737340E-01
  4.62972379E-17 -7.44115036E-16  6.01887560E-01  1.41911209E-01  3.27575823E-15
  8.02225258E-16 -4.74869092E-15  5.88193670E-01  1.38682505E-01 -3.94378877E-15
 -7.11075541E-16  2.64685390E-15 -1.41911209E-01  6.01887560E-01 -2.72548699E-15
 -1.40154258E-16  7.90114247E-16 -1.38682505E-01  5.88193670E-01  1.25693964E-15
 -6.15277471E-02  4.12498898E-01  3.43915594E-15  3.21118597E-16 -6.01419673E-01
 -6.90504780E-02  4.46155814E-01  4.32749068E-15 -2.62787431E-15  6.07671624E-01
 -1.01254628E-16  4.87498756E-16 -1.31120421E-01 -8.53876392E-01 -8.22893407E-16
  6.89322466E-17  2.29781543E-16  1.32623030E-01  8.63661615E-01  7.68619399E-16
  4.16210654E-17 -3.15980342E-16 -8.53876392E-01  1.31120421E-01  6.51811096E-16
 -1.81916499E-16 -1.07257244E-16  8.63661615E-01 -1.32623030E-01 -2.87723830E-16
  1.21406788E-01 -1.58148910E+00 -4.14771325E-16 -3.20331494E-17 -1.38307612E+00
 -1.23727852E-01  1.58301930E+00  1.07267971E-16 -1.30264910E-16 -1.38707997E+00
Total SCF Density                          R   N=          55
  2.10951231E+00 -4.14208324E-01  1.85941250E+00  5.61040860E-16 -4.92373919E-16
  7.64814853E-01  3.05339408E-17  2.18161919E-17 -4.02455846E-15  7.64814853E-01
  9.39054116E-02 -6.90493999E-01  1.66279981E-15 -2.98682455E-15  1.06002692E+00
  1.88779889E-02 -7.30469785E-03 -1.02098623E-15  1.09141473E-15 -1.30631420E-01
  2.10837436E+00 -3.34775082E-04 -2.77160254E-01 -5.20691113E-16  1.96939317E-18
  1.50674123E-01 -4.06488189E-01  1.84972780E+00 -3.99945420E-16  8.79228324E-16
  7.47414110E-01 -5.32907052E-15  2.21148344E-16  1.98759773E-15 -7.68087486E-17
  7.30409261E-01 -8.15475903E-16 -1.15804550E-15  5.91193761E-15  7.47414110E-01
  2.48184058E-15 -1.06082638E-15  7.37928363E-16  4.38538095E-15  7.30409261E-01
  1.25183190E-01 -1.59105433E-01 -3.31465541E-16  2.29515867E-15 -7.04735540E-01
 -1.01316606E-01  7.07403122E-01  5.71775016E-16 -2.24441213E-15  1.03784434E+00
Spin SCF Density                           R   N=          55
  0.00000000E+00  0.00000000E+00  0.00000000E+00  0.00000000E+00  0.00000000E+00
  0.00000000E+00  0.00000000E+00  0.00000000E+00  0.00000000E+00  0.00000000E+00
  0.00000000E+00  0.00000000E+00  0.00000000E+00  0.00000000E+00  0.00000000E+00
  0.00000000E+00  0.00000000E+00  0.00000000E+00  0.00000000E+00  0.00000000E+00
  0.00000000E+00  0.00000000E+00  0.00000000E+00  0.00000000E+00  0.00000000E+00
  0.00000000E+00  0.00000000E+00  0.00000000E+00  0.00000000E+00  0.00000000E+00
  0.00000000E+00  0.00000000E+00  0.00000000E+00  0.00000000E+00  0.00000000E+00
  0.00000000E+00  0.00000000E+00  0.00000000E+00  0.00000000E+00  0.00000000E+00
  0.00000000E+00  0.00000000E+00  0.00000000E+00  0.00000000E+00  0.00000000E+00
  0.00000000E+00  0.00000000E+00  0.00000000E+00  0.00000000E+00  0.00000000E+00
  0.00000000E+00  0.00000000E+00  0.00000000E+00  0.00000000E+00  0.00000000E+00
Mulliken Charges                           R   N=           2
  9.06322424E-04  4.90936776E-02
Cartesian Gradient                         R   N=           6
  0.00000000E+00  0.00000000E+00  0.00000000E+00  0.00000000E+00  0.00000000E+00
  0.00000000E+00
Dipole Moment                              R   N=           3
 -3.79945099E-17 -3.36255343E-16  7.53726934E-02
Quadrupole Moment                          R   N=           6
  6.09020233E-01  6.09020233E-01 -1.21804047E+00 -4.83215099E-16 -2.64603557E-15
  1.01698318E-15
Anisotropic Hyperfine tensors              R   N=          12
  0.00000000E+00  0.00000000E+00  0.00000000E+00  0.00000000E+00  0.00000000E+00
  0.00000000E+00  0.00000000E+00  0.00000000E+00  0.00000000E+00  0.00000000E+00
  0.00000000E+00  0.00000000E+00
Isotropic Hyperfine splittings             R   N=           2
  0.00000000E+00  0.00000000E+00
QEq coupling tensors                       R   N=          12
 -1.18341942E-01 -1.06628544E-14 -1.18341942E-01  4.64666954E-15 -8.34652394E-15
  2.36683883E-01 -1.33830258E-01  1.19519057E-14 -1.33830258E-01 -2.06973092E-16
 -5.78522501E-15  2.67660517E-01
