run                                                                     
SP        UHF                                                         Gen                 
Number of atoms                            I                2
Info1-9                                    I   N=           9
          32          32           0           0           0         110
           1           1           2
Charge                                     I                0
Multiplicity                               I                1
Number of electrons                        I               14
Number of alpha electrons                  I                7
Number of beta electrons                   I                7
Number of basis functions                  I               10
Number of independent functions            I               10
Number of point charges in /Mol/           I                0
Number of translation vectors              I                0
Atomic numbers                             I   N=           2
           7           7
Nuclear charges                            R   N=           2
  7.00000000E+00  6.95000000E+00
Current cartesian coordinates              R   N=           6
  0.00000000E+00  0.00000000E+00  0.00000000E+00  0.00000000E+00  0.00000000E+00
  1.88972613E+00
Force Field                                I                0
Int Atom Types                             I   N=           2
           0           0
MM charges                                 R   N=           2
  0.00000000E+00  0.00000000E+00
Integer atomic weights                     I   N=           2
          14          14
Real atomic weights                        R   N=           2
  1.40030740E+01  1.40030740E+01
Atom fragment info                         I   N=           2
           0           0
Atom residue num                           I   N=           2
           0           0
Nuclear spins                              I   N=           2
           2           2
Nuclear ZEff                               R   N=           2
 -4.55000000E+00 -4.55000000E+00
Nuclear ZNuc                               R   N=           2
  7.00000000E+00  7.00000000E+00
Nuclear QMom                               R   N=           2
  2.04400000E+00  2.04400000E+00
Nuclear GFac                               R   N=           2
  4.03761000E-01  4.03761000E-01
MicOpt                                     I   N=           2
          -1          -1
Number of contracted shells                I                4
Number of primitive shells                 I               12
Pure/Cartesian d shells                    I                0
Pure/Cartesian f shells                    I                0
Highest angular momentum                   I                1
Largest degree of contraction              I                3
Shell types                                I   N=           4
           0          -1           0          -1
Number of primitives per shell             I   N=           4
           3           3           3           3
Shell to atom map                          I   N=           4
           1           1           2           2
Primitive exponents                        R   N=          12
  9.91061690E+01  1.80523124E+01  4.88566024E+00  3.78045588E+00  8.78496645E-01
  2.85714374E-01  9.91061690E+01  1.80523124E+01  4.88566024E+00  3.78045588E+00
  8.78496645E-01  2.85714374E-01
Contraction coefficients                   R   N=          12
  1.54328967E-01  5.35328142E-01  4.44634542E-01 -9.99672292E-02  3.99512826E-01
  7.00115469E-01  1.54328967E-01  5.35328142E-01  4.44634542E-01 -9.99672292E-02
  3.99512826E-01  7.00115469E-01
P(S=P) Contraction coefficients            R   N=          12
  0.00000000E+00  0.00000000E+00  0.00000000E+00  1.55916275E-01  6.07683719E-01
  3.91957393E-01  0.00000000E+00  0.00000000E+00  0.00000000E+00  1.55916275E-01
  6.07683719E-01  3.91957393E-01
Coordinates of each shell                  R   N=          12
  0.00000000E+00  0.00000000E+00  0.00000000E+00  0.00000000E+00  0.00000000E+00
  0.00000000E+00  0.00000000E+00  0.00000000E+00  1.88972613E+00  0.00000000E+00
  0.00000000E+00  1.88972613E+00
Constraint Structure                       R   N=           6
  0.00000000E+00  0.00000000E+00  0.00000000E+00  0.00000000E+00  0.00000000E+00
  1.88972613E+00
Num ILSW                                   I              100
ILSW                                       I   N=         100
           1           0           0           0           2           0
           0           0           0           0           0          -1
           0           0           0           0           0           0
           0           0           1           0           0           0
           1           1           0           0           0           8
           0           0      100000           0          -1           0
           0           0           0           0           0           0
           0           0           0           1           0           0
           0           0           1           0           0           0
           0           0           4          41           0           0
           0           0           0           0           0           0
           0           0           0           0           0           0
           0           0           0           0           0           0
           0           0           0           0           0           0
           0           0           0           0           0           0
           0           0           0           0           0           0
           0           0           0           0
Num RLSW                                   I               41
RLSW                                       R   N=          41
  1.00000000E+00  1.00000000E+00  1.00000000E+00  1.00000000E+00  1.00000000E+00
  0.00000000E+00  0.00000000E+00  1.00000000E+00  0.00000000E+00  0.00000000E+00
  0.00000000E+00  0.00000000E+00  1.00000000E+00  0.00000000E+00  0.00000000E+00
  0.00000000E+00  0.00000000E+00  1.00000000E+00  0.00000000E+00  0.00000000E+00
  0.00000000E+00  0.00000000E+00  1.00000000E+00  0.00000000E+00  0.00000000E+00
  0.00000000E+00  0.00000000E+00  1.00000000E+00  0.00000000E+00  0.00000000E+00
  0.00000000E+00  0.00000000E+00  1.00000000E+00  0.00000000E+00  0.00000000E+00
  0.00000000E+00  0.00000000E+00  0.00000000E+00  1.00000000E+00  1.00000000E+00
  0.00000000E+00
MxBond                                     I                1
NBond                                      I   N=           2
           1           1
IBond                                      I   N=           2
           2           1
RBond                                      R   N=           2
  3.00000000E+00  3.00000000E+00
Virial Ratio                               R      2.000179117239670E+00
SCF Energy                                 R     -1.065240088550904E+02
Total Energy                               R     -1.065240088550904E+02
S**2                                       R     -1.598721155460225E-14
S**2 after annihilation                    R      1.243449787580164E-14
RMS Density                                R      7.971606677354586E-09
External E-field                           R   N=          35
  0.00000000E+00  0.00000000E+00  0.00000000E+00  0.00000000E+00  0.00000000E+00
  0.00000000E+00  0.00000000E+00  0.00000000E+00  0.00000000E+00  0.00000000E+00
  0.00000000E+00  0.00000000E+00  0.00000000E+00  0.00000000E+00  0.00000000E+00
  0.00000000E+00  0.00000000E+00  0.00000000E+00  0.00000000E+00  0.00000000E+00
  0.00000000E+00  0.00000000E+00  0.00000000E+00  0.00000000E+00  0.00000000E+00
  0.00000000E+00  0.00000000E+00  0.00000000E+00  0.00000000E+00  0.00000000E+00
  0.00000000E+00  0.00000000E+00  0.00000000E+00  0.00000000E+00  0.00000000E+00
IOpCl                                      I                1
IROHF                                      I                0
Alpha Orbital Energies                     R   N=          10
 -1.55098179E+01 -1.52508279E+01 -1.49624696E+00 -6.73952042E-01 -6.10958032E-01
 -6.10958032E-01 -5.29811443E-01  3.66879884E-01  3.66879884E-01  1.43352907E+00
Beta Orbital Energies                      R   N=          10
 -1.55098179E+01 -1.52508279E+01 -1.49624696E+00 -6.73952042E-01 -6.10958032E-01
 -6.10958032E-01 -5.29811443E-01  3.66879884E-01  3.66879884E-01  1.43352907E+00
Alpha MO coefficients                      R   N=         100
  9.93926098E-01  3.07504455E-02  7.51112082E-16 -5.81164831E-16  1.05643612E-02
  9.04683138E-03 -1.23719587E-02 -4.34247051E-16  2.64560133E-16  5.72311010E-03
 -9.57469143E-03 -1.52083504E-02  5.26744042E-16 -4.74905139E-16 -7.12007895E-03
  9.92988333E-01  3.58632689E-02  8.61115559E-17 -3.32801996E-16 -1.21852175E-02
 -1.86120111E-01  4.70929911E-01  5.40083014E-16  3.89940489E-16  2.69010686E-01
 -1.85148104E-01  4.50008662E-01 -4.40483420E-16  1.81472470E-15 -2.63618665E-01
 -1.67017896E-01  7.27470181E-01  1.32519952E-14  9.04163429E-15 -3.12998925E-01
  1.68867429E-01 -7.16915352E-01  1.37712032E-14  8.82542813E-15 -2.85380830E-01
  5.51218674E-16 -7.66610530E-16 -2.44421620E-01  5.68008319E-01 -2.83667947E-15
 -9.63099191E-16  5.62921789E-15 -2.38881012E-01  5.55132570E-01  5.59150225E-15
  4.72885947E-15 -2.26897117E-14  5.68008319E-01  2.44421620E-01  1.31976903E-14
 -3.60460339E-15  1.43467775E-14  5.55132570E-01  2.38881012E-01  1.87656432E-15
 -6.11442502E-02  4.09644084E-01  7.13145795E-15 -2.19006277E-15 -6.02599108E-01
 -6.89339374E-02  4.43822973E-01  5.27522568E-15 -5.98845196E-16  6.09492247E-01
  2.15549920E-16 -6.88762057E-16 -2.95939836E-02 -8.63396607E-01  6.62971053E-16
  1.94149872E-16 -1.07293879E-15  2.99318600E-02  8.73254063E-01 -6.83446956E-16
 -5.77684042E-17  2.47213604E-16 -8.63396607E-01  2.95939836E-02 -2.53889320E-16
 -2.36951720E-16  8.73013213E-16  8.73254063E-01 -2.99318600E-02  3.58096969E-16
  1.23453260E-01 -1.58456335E+00 -1.29515079E-17  6.28525524E-18 -1.38177058E+00
 -1.25857740E-01  1.58616535E+00 -9.65122001E-17  4.11359150E-19 -1.38575393E+00
Beta MO coefficients                       R   N=         100
  9.93926098E-01  3.07504455E-02  7.51112082E-16 -5.81164831E-16  1.05643612E-02
  9.04683138E-03 -1.23719587E-02 -4.34247051E-16  2.64560133E-16  5.72311010E-03
 -9.57469143E-03 -1.52083504E-02  5.26744042E-16 -4.74905139E-16 -7.12007895E-03
  9.92988333E-01  3.58632689E-02  8.61115559E-17 -3.32801996E-16 -1.21852175E-02
 -1.86120111E-01  4.70929911E-01  5.40083014E-16  3.89940489E-16  2.69010686E-01
 -1.85148104E-01  4.50008662E-01 -4.40483420E-16  1.81472470E-15 -2.63618665E-01
 -1.67017896E-01  7.27470181E-01  1.32519952E-14  9.04163429E-15 -3.12998925E-01
  1.68867429E-01 -7.16915352E-01  1.37712032E-14  8.82542813E-15 -2.85380830E-01
  5.51218674E-16 -7.66610530E-16 -2.44421620E-01  5.68008319E-01 -2.83667947E-15
 -9.63099191E-16  5.62921789E-15 -2.38881012E-01  5.55132570E-01  5.59150225E-15
  4.72885947E-15 -2.26897117E-14  5.68008319E-01  2.44421620E-01  1.31976903E-14
 -3.60460339E-15  1.43467775E-14  5.55132570E-01  2.38881012E-01  1.87656432E-15
 -6.11442502E-02  4.09644084E-01  7.13145795E-15 -2.19006277E-15 -6.02599108E-01
 -6.89339374E-02  4.43822973E-01  5.27522568E-15 -5.98845196E-16  6.09492247E-01
  2.15549920E-16 -6.88762057E-16 -2.95939836E-02 -8.63396607E-01  6.62971053E-16
  1.94149872E-16 -1.07293879E-15  2.99318600E-02  8.73254063E-01 -6.83446956E-16
 -5.77684042E-17  2.47213604E-16 -8.63396607E-01  2.95939836E-02 -2.53889320E-16
 -2.36951720E-16  8.73013213E-16  8.73254063E-01 -2.99318600E-02  3.58096969E-16
  1.23453260E-01 -1.58456335E+00 -1.29515079E-17  6.28525524E-18 -1.38177058E+00
 -1.25857740E-01  1.58616535E+00 -9.65122001E-17  4.11359150E-19 -1.38575393E+00
Cartesian Gradient                         R   N=           6
  0.00000000E+00  0.00000000E+00  0.00000000E+00  0.00000000E+00  0.00000000E+00
  0.00000000E+00
