run                                                                     
SP        UHF                                                         Gen                 
Number of atoms                            I                2
Info1-9                                    I   N=           9
          32          32           0           0           0         110
           1           1           2
Charge                                     I                0
Multiplicity                               I                1
Number of electrons                        I               14
Number of alpha electrons                  I                7
Number of beta electrons                   I                7
Number of basis functions                  I               10
Number of independent functions            I               10
Number of point charges in /Mol/           I                0
Number of translation vectors              I                0
Atomic numbers                             I   N=           2
           7           7
Nuclear charges                            R   N=           2
  7.05000000E+00  7.05000000E+00
Current cartesian coordinates              R   N=           6
  0.00000000E+00  0.00000000E+00  0.00000000E+00  0.00000000E+00  0.00000000E+00
  1.88972613E+00
Force Field                                I                0
Int Atom Types                             I   N=           2
           0           0
MM charges                                 R   N=           2
  0.00000000E+00  0.00000000E+00
Integer atomic weights                     I   N=           2
          14          14
Real atomic weights                        R   N=           2
  1.40030740E+01  1.40030740E+01
Atom fragment info                         I   N=           2
           0           0
Atom residue num                           I   N=           2
           0           0
Nuclear spins                              I   N=           2
           2           2
Nuclear ZEff                               R   N=           2
 -4.55000000E+00 -4.55000000E+00
Nuclear ZNuc                               R   N=           2
  7.00000000E+00  7.00000000E+00
Nuclear QMom                               R   N=           2
  2.04400000E+00  2.04400000E+00
Nuclear GFac                               R   N=           2
  4.03761000E-01  4.03761000E-01
MicOpt                                     I   N=           2
          -1          -1
Number of contracted shells                I                4
Number of primitive shells                 I               12
Pure/Cartesian d shells                    I                0
Pure/Cartesian f shells                    I                0
Highest angular momentum                   I                1
Largest degree of contraction              I                3
Shell types                                I   N=           4
           0          -1           0          -1
Number of primitives per shell             I   N=           4
           3           3           3           3
Shell to atom map                          I   N=           4
           1           1           2           2
Primitive exponents                        R   N=          12
  9.91061690E+01  1.80523124E+01  4.88566024E+00  3.78045588E+00  8.78496645E-01
  2.85714374E-01  9.91061690E+01  1.80523124E+01  4.88566024E+00  3.78045588E+00
  8.78496645E-01  2.85714374E-01
Contraction coefficients                   R   N=          12
  1.54328967E-01  5.35328142E-01  4.44634542E-01 -9.99672292E-02  3.99512826E-01
  7.00115469E-01  1.54328967E-01  5.35328142E-01  4.44634542E-01 -9.99672292E-02
  3.99512826E-01  7.00115469E-01
P(S=P) Contraction coefficients            R   N=          12
  0.00000000E+00  0.00000000E+00  0.00000000E+00  1.55916275E-01  6.07683719E-01
  3.91957393E-01  0.00000000E+00  0.00000000E+00  0.00000000E+00  1.55916275E-01
  6.07683719E-01  3.91957393E-01
Coordinates of each shell                  R   N=          12
  0.00000000E+00  0.00000000E+00  0.00000000E+00  0.00000000E+00  0.00000000E+00
  0.00000000E+00  0.00000000E+00  0.00000000E+00  1.88972613E+00  0.00000000E+00
  0.00000000E+00  1.88972613E+00
Constraint Structure                       R   N=           6
  0.00000000E+00  0.00000000E+00  0.00000000E+00  0.00000000E+00  0.00000000E+00
  1.88972613E+00
Num ILSW                                   I              100
ILSW                                       I   N=         100
           1           0           0           0           2           0
           0           0           0           0           0          -1
           0           0           0           0           0           0
           0           0           1           0           0           0
           1           1           0           0           0           8
           0           0      100000           0          -1           0
           0           0           0           0           0           0
           0           0           0           1           0           0
           0           0           1           0           0           0
           0           0           4          41           0           0
           0           0           0           0           0           0
           0           0           0           0           0           0
           0           0           0           0           0           0
           0           0           0           0           0           0
           0           0           0           0           0           0
           0           0           0           0           0           0
           0           0           0           0
Num RLSW                                   I               41
RLSW                                       R   N=          41
  1.00000000E+00  1.00000000E+00  1.00000000E+00  1.00000000E+00  1.00000000E+00
  0.00000000E+00  0.00000000E+00  1.00000000E+00  0.00000000E+00  0.00000000E+00
  0.00000000E+00  0.00000000E+00  1.00000000E+00  0.00000000E+00  0.00000000E+00
  0.00000000E+00  0.00000000E+00  1.00000000E+00  0.00000000E+00  0.00000000E+00
  0.00000000E+00  0.00000000E+00  1.00000000E+00  0.00000000E+00  0.00000000E+00
  0.00000000E+00  0.00000000E+00  1.00000000E+00  0.00000000E+00  0.00000000E+00
  0.00000000E+00  0.00000000E+00  1.00000000E+00  0.00000000E+00  0.00000000E+00
  0.00000000E+00  0.00000000E+00  0.00000000E+00  1.00000000E+00  1.00000000E+00
  0.00000000E+00
MxBond                                     I                1
NBond                                      I   N=           2
           1           1
IBond                                      I   N=           2
           2           1
RBond                                      R   N=           2
  3.00000000E+00  3.00000000E+00
Virial Ratio                               R      2.024791970422790E+00
SCF Energy                                 R     -1.092106983949740E+02
Total Energy                               R     -1.092106983949740E+02
S**2                                       R      4.440892098500626E-15
S**2 after annihilation                    R     -2.309263891220322E-14
RMS Density                                R      3.845758192595376E-10
External E-field                           R   N=          35
  0.00000000E+00  0.00000000E+00  0.00000000E+00  0.00000000E+00  0.00000000E+00
  0.00000000E+00  0.00000000E+00  0.00000000E+00  0.00000000E+00  0.00000000E+00
  0.00000000E+00  0.00000000E+00  0.00000000E+00  0.00000000E+00  0.00000000E+00
  0.00000000E+00  0.00000000E+00  0.00000000E+00  0.00000000E+00  0.00000000E+00
  0.00000000E+00  0.00000000E+00  0.00000000E+00  0.00000000E+00  0.00000000E+00
  0.00000000E+00  0.00000000E+00  0.00000000E+00  0.00000000E+00  0.00000000E+00
  0.00000000E+00  0.00000000E+00  0.00000000E+00  0.00000000E+00  0.00000000E+00
IOpCl                                      I                1
IROHF                                      I                0
Alpha Orbital Energies                     R   N=          10
 -1.59127229E+01 -1.59079468E+01 -1.62782684E+00 -7.82076783E-01 -7.16493453E-01
 -7.16493453E-01 -6.35075388E-01  2.54400465E-01  2.54400465E-01  1.28980424E+00
Beta Orbital Energies                      R   N=          10
 -1.59127229E+01 -1.59079468E+01 -1.62782684E+00 -7.82076783E-01 -7.16493453E-01
 -7.16493453E-01 -6.35075388E-01  2.54400465E-01  2.54400465E-01  1.28980424E+00
Alpha MO coefficients                      R   N=         100
  7.03314152E-01  1.08884601E-02  2.94966753E-16  5.49740380E-17  3.22564476E-03
  7.03314152E-01  1.08884601E-02 -1.16687725E-16 -1.12952087E-17 -3.22564476E-03
  7.03741399E-01  2.57581767E-02  2.38077778E-17  3.44456911E-16  9.82991249E-03
 -7.03741399E-01 -2.57581767E-02 -2.72841698E-17 -3.46066736E-16  9.82991249E-03
 -1.81747109E-01  4.56950173E-01 -5.98106744E-16 -3.53235011E-16  2.71408961E-01
 -1.81747109E-01  4.56950173E-01 -1.97973730E-16 -1.61832646E-16 -2.71408961E-01
 -1.65882121E-01  7.32974448E-01  1.38108768E-15 -5.87513481E-16 -2.90024117E-01
  1.65882121E-01 -7.32974448E-01 -6.06205444E-16  4.53899991E-16 -2.90024117E-01
 -9.61526570E-16  5.77245622E-15  5.20387272E-01 -3.20902058E-01 -8.57376806E-15
 -1.17854336E-15  6.86300028E-15  5.20387272E-01 -3.20902058E-01  8.73080939E-15
  3.79407548E-16 -2.85727739E-15  3.20902058E-01  5.20387272E-01  4.08635509E-15
  2.90123805E-16 -2.42718645E-15  3.20902058E-01  5.20387272E-01 -4.01620468E-15
  6.53748418E-02 -4.30617046E-01  4.58586578E-15 -7.06877675E-15  6.03944178E-01
  6.53748418E-02 -4.30617046E-01  5.87537710E-15 -7.91246210E-15 -6.03944178E-01
 -2.60963247E-16  7.14651875E-16 -1.48912666E-01  8.56007510E-01 -2.53948933E-16
  8.01553153E-17 -5.42273433E-16  1.48912666E-01 -8.56007510E-01 -4.32019580E-18
  9.28693961E-17 -6.61828518E-16  8.56007510E-01  1.48912666E-01  3.29565336E-16
 -1.14297199E-16  5.69109387E-16 -8.56007510E-01 -1.48912666E-01  3.50556015E-17
 -1.21532919E-01  1.58067895E+00  1.03474981E-16 -4.41314391E-17  1.38574189E+00
  1.21532919E-01 -1.58067895E+00 -1.64628115E-17  2.62360102E-17  1.38574189E+00
Beta MO coefficients                       R   N=         100
  7.03314152E-01  1.08884601E-02  2.94966753E-16  5.49740380E-17  3.22564476E-03
  7.03314152E-01  1.08884601E-02 -1.16687725E-16 -1.12952087E-17 -3.22564476E-03
  7.03741399E-01  2.57581767E-02  2.38077778E-17  3.44456911E-16  9.82991249E-03
 -7.03741399E-01 -2.57581767E-02 -2.72841698E-17 -3.46066736E-16  9.82991249E-03
 -1.81747109E-01  4.56950173E-01 -5.98106744E-16 -3.53235011E-16  2.71408961E-01
 -1.81747109E-01  4.56950173E-01 -1.97973730E-16 -1.61832646E-16 -2.71408961E-01
 -1.65882121E-01  7.32974448E-01  1.38108768E-15 -5.87513481E-16 -2.90024117E-01
  1.65882121E-01 -7.32974448E-01 -6.06205444E-16  4.53899991E-16 -2.90024117E-01
 -9.61526570E-16  5.77245622E-15  5.20387272E-01 -3.20902058E-01 -8.57376806E-15
 -1.17854336E-15  6.86300028E-15  5.20387272E-01 -3.20902058E-01  8.73080939E-15
  3.79407548E-16 -2.85727739E-15  3.20902058E-01  5.20387272E-01  4.08635509E-15
  2.90123805E-16 -2.42718645E-15  3.20902058E-01  5.20387272E-01 -4.01620468E-15
  6.53748418E-02 -4.30617046E-01  4.58586578E-15 -7.06877675E-15  6.03944178E-01
  6.53748418E-02 -4.30617046E-01  5.87537710E-15 -7.91246210E-15 -6.03944178E-01
 -2.60963247E-16  7.14651875E-16 -1.48912666E-01  8.56007510E-01 -2.53948933E-16
  8.01553153E-17 -5.42273433E-16  1.48912666E-01 -8.56007510E-01 -4.32019580E-18
  9.28693961E-17 -6.61828518E-16  8.56007510E-01  1.48912666E-01  3.29565336E-16
 -1.14297199E-16  5.69109387E-16 -8.56007510E-01 -1.48912666E-01  3.50556015E-17
 -1.21532919E-01  1.58067895E+00  1.03474981E-16 -4.41314391E-17  1.38574189E+00
  1.21532919E-01 -1.58067895E+00 -1.64628115E-17  2.62360102E-17  1.38574189E+00
Cartesian Gradient                         R   N=           6
  0.00000000E+00  0.00000000E+00  0.00000000E+00  0.00000000E+00  0.00000000E+00
  0.00000000E+00
