run                                                                     
SP        UHF                                                         Gen                 
Number of atoms                            I                2
Info1-9                                    I   N=           9
          32          32           0           0           0         110
           1           1           2
Charge                                     I                0
Multiplicity                               I                1
Number of electrons                        I               14
Number of alpha electrons                  I                7
Number of beta electrons                   I                7
Number of basis functions                  I               10
Number of independent functions            I               10
Number of point charges in /Mol/           I                0
Number of translation vectors              I                0
Atomic numbers                             I   N=           2
          10           4
Nuclear charges                            R   N=           2
  1.00000000E+01  4.00000000E+00
Current cartesian coordinates              R   N=           6
  0.00000000E+00  0.00000000E+00  0.00000000E+00  0.00000000E+00  0.00000000E+00
  1.88972613E+00
Force Field                                I                0
Int Atom Types                             I   N=           2
           0           0
MM charges                                 R   N=           2
  0.00000000E+00  0.00000000E+00
Integer atomic weights                     I   N=           2
          14          14
Real atomic weights                        R   N=           2
  1.40030740E+01  1.40030740E+01
Atom fragment info                         I   N=           2
           0           0
Atom residue num                           I   N=           2
           0           0
Nuclear spins                              I   N=           2
           2           2
Nuclear ZEff                               R   N=           2
 -8.00000000E+00 -2.00000000E+00
Nuclear ZNuc                               R   N=           2
  1.00000000E+01  4.00000000E+00
Nuclear QMom                               R   N=           2
  2.04400000E+00  2.04400000E+00
Nuclear GFac                               R   N=           2
  4.03761000E-01  4.03761000E-01
MicOpt                                     I   N=           2
          -1          -1
Number of contracted shells                I                4
Number of primitive shells                 I               12
Pure/Cartesian d shells                    I                0
Pure/Cartesian f shells                    I                0
Highest angular momentum                   I                1
Largest degree of contraction              I                3
Shell types                                I   N=           4
           0          -1           0          -1
Number of primitives per shell             I   N=           4
           3           3           3           3
Shell to atom map                          I   N=           4
           1           1           2           2
Primitive exponents                        R   N=          12
  9.91061690E+01  1.80523124E+01  4.88566024E+00  3.78045588E+00  8.78496645E-01
  2.85714374E-01  9.91061690E+01  1.80523124E+01  4.88566024E+00  3.78045588E+00
  8.78496645E-01  2.85714374E-01
Contraction coefficients                   R   N=          12
  1.54328967E-01  5.35328142E-01  4.44634542E-01 -9.99672292E-02  3.99512826E-01
  7.00115469E-01  1.54328967E-01  5.35328142E-01  4.44634542E-01 -9.99672292E-02
  3.99512826E-01  7.00115469E-01
P(S=P) Contraction coefficients            R   N=          12
  0.00000000E+00  0.00000000E+00  0.00000000E+00  1.55916275E-01  6.07683719E-01
  3.91957393E-01  0.00000000E+00  0.00000000E+00  0.00000000E+00  1.55916275E-01
  6.07683719E-01  3.91957393E-01
Coordinates of each shell                  R   N=          12
  0.00000000E+00  0.00000000E+00  0.00000000E+00  0.00000000E+00  0.00000000E+00
  0.00000000E+00  0.00000000E+00  0.00000000E+00  1.88972613E+00  0.00000000E+00
  0.00000000E+00  1.88972613E+00
Constraint Structure                       R   N=           6
  0.00000000E+00  0.00000000E+00  0.00000000E+00  0.00000000E+00  0.00000000E+00
  1.88972613E+00
Num ILSW                                   I              100
ILSW                                       I   N=         100
           1           0           0           0           2           0
           0           0           0           0           0          -1
           0           0           0           0           0           0
           0           0           1           0           0           0
           1           1           0           0           0           8
           0           0      100000           0          -1           0
           0           0           0           0           0           0
           0           0           0           1           0           0
           0           0           1           0           0           0
           0           0           4          41           0           0
           0           0           0           0           0           0
           0           0           0           0           0           0
           0           0           0           0           0           0
           0           0           0           0           0           0
           0           0           0           0           0           0
           0           0           0           0           0           0
           0           0           0           0
Num RLSW                                   I               41
RLSW                                       R   N=          41
  1.00000000E+00  1.00000000E+00  1.00000000E+00  1.00000000E+00  1.00000000E+00
  0.00000000E+00  0.00000000E+00  1.00000000E+00  0.00000000E+00  0.00000000E+00
  0.00000000E+00  0.00000000E+00  1.00000000E+00  0.00000000E+00  0.00000000E+00
  0.00000000E+00  0.00000000E+00  1.00000000E+00  0.00000000E+00  0.00000000E+00
  0.00000000E+00  0.00000000E+00  1.00000000E+00  0.00000000E+00  0.00000000E+00
  0.00000000E+00  0.00000000E+00  1.00000000E+00  0.00000000E+00  0.00000000E+00
  0.00000000E+00  0.00000000E+00  1.00000000E+00  0.00000000E+00  0.00000000E+00
  0.00000000E+00  0.00000000E+00  0.00000000E+00  1.00000000E+00  1.00000000E+00
  0.00000000E+00
MxBond                                     I                1
NBond                                      I   N=           2
           1           1
IBond                                      I   N=           2
           2           1
RBond                                      R   N=           2
  3.00000000E+00  3.00000000E+00
Virial Ratio                               R      2.534064818521747E+00
SCF Energy                                 R     -1.235705948674849E+02
Total Energy                               R     -1.235705948674849E+02
S**2                                       R     -2.486899575160351E-14
S**2 after annihilation                    R      6.217248937900777E-14
RMS Density                                R      1.156822010011464E-10
External E-field                           R   N=          35
  0.00000000E+00  0.00000000E+00  0.00000000E+00  0.00000000E+00  0.00000000E+00
  0.00000000E+00  0.00000000E+00  0.00000000E+00  0.00000000E+00  0.00000000E+00
  0.00000000E+00  0.00000000E+00  0.00000000E+00  0.00000000E+00  0.00000000E+00
  0.00000000E+00  0.00000000E+00  0.00000000E+00  0.00000000E+00  0.00000000E+00
  0.00000000E+00  0.00000000E+00  0.00000000E+00  0.00000000E+00  0.00000000E+00
  0.00000000E+00  0.00000000E+00  0.00000000E+00  0.00000000E+00  0.00000000E+00
  0.00000000E+00  0.00000000E+00  0.00000000E+00  0.00000000E+00  0.00000000E+00
IOpCl                                      I                1
IROHF                                      I                0
Alpha Orbital Energies                     R   N=          10
 -3.22362208E+01 -3.01593146E+00 -1.99543641E+00 -1.31516288E+00 -1.29119909E+00
 -1.28075488E+00  2.43402228E-01  8.06321631E-01  1.27277836E+00  3.63321028E+00
Beta Orbital Energies                      R   N=          10
 -3.22362208E+01 -3.01593146E+00 -1.99543641E+00 -1.31516288E+00 -1.29119909E+00
 -1.28075488E+00  2.43402228E-01  8.06321631E-01  1.27277836E+00  3.63321028E+00
Alpha MO coefficients                      R   N=         100
  1.01677929E+00 -1.13827140E-01 -5.13250608E-18  5.64607161E-17 -3.59681235E-02
 -1.08381573E-03  5.59956346E-02  3.00182452E-16  1.16680697E-16 -3.20885919E-02
 -4.47050784E-02 -5.48445970E-04 -2.68751946E-16 -3.97518845E-16  6.60958415E-02
  5.09283212E-01  7.04344996E-01  4.75460385E-16  9.44654833E-16 -1.36871976E-01
 -1.78414841E-01  1.32214286E+00  6.87334748E-16 -1.08680572E-15  3.76845883E-01
 -2.12594359E-01 -7.13666312E-01 -1.16992588E-15 -7.87724632E-16  1.40400926E-01
  1.72293827E-02  1.46317782E-01  4.80196081E-14 -1.37317687E-14  1.21389655E+00
 -1.29564411E-01 -6.56575862E-01  2.80472057E-15  3.74694364E-15  1.29051653E-01
  5.63611894E-16  7.32689417E-15 -6.73443436E-01  7.48903266E-01  5.08159654E-14
 -5.59703713E-15 -2.79114355E-14  1.46070751E-02 -1.62438085E-02  5.72533383E-15
 -5.76680598E-16 -3.62999285E-15  7.45342277E-01  6.70241254E-01 -3.33473372E-14
  3.58106946E-15  1.78581288E-14 -5.28206047E-03 -4.74983768E-03 -3.93113244E-15
 -2.69807294E-16 -3.21497456E-16 -2.61783303E-01 -2.35405900E-01 -5.76350458E-15
  2.11254505E-16  2.14972249E-15  7.89960573E-01  7.10363791E-01 -1.63099202E-15
  6.34750872E-17  1.39010802E-15  2.26082317E-01 -2.51415006E-01  7.15505840E-16
 -2.21908634E-16 -7.02351195E-16 -7.10229477E-01  7.89811209E-01  1.92620547E-15
 -2.75881611E-02  9.77196432E-01 -6.23145819E-16  3.73070877E-16  7.20339095E-01
 -2.11105197E-01 -5.12586982E-01  2.12472701E-15 -1.17730244E-15  1.40747612E+00
  2.76999108E-02 -8.32750623E-01  5.41265171E-17 -6.52911566E-17 -5.50276828E-01
 -8.38794669E-01  1.31469379E+00 -1.97906935E-16  2.77366907E-16 -6.37019325E-01
Beta MO coefficients                       R   N=         100
  1.01677929E+00 -1.13827140E-01 -5.13250608E-18  5.64607161E-17 -3.59681235E-02
 -1.08381573E-03  5.59956346E-02  3.00182452E-16  1.16680697E-16 -3.20885919E-02
 -4.47050784E-02 -5.48445970E-04 -2.68751946E-16 -3.97518845E-16  6.60958415E-02
  5.09283212E-01  7.04344996E-01  4.75460385E-16  9.44654833E-16 -1.36871976E-01
 -1.78414841E-01  1.32214286E+00  6.87334748E-16 -1.08680572E-15  3.76845883E-01
 -2.12594359E-01 -7.13666312E-01 -1.16992588E-15 -7.87724632E-16  1.40400926E-01
  1.72293827E-02  1.46317782E-01  4.80196081E-14 -1.37317687E-14  1.21389655E+00
 -1.29564411E-01 -6.56575862E-01  2.80472057E-15  3.74694364E-15  1.29051653E-01
  5.63611894E-16  7.32689417E-15 -6.73443436E-01  7.48903266E-01  5.08159654E-14
 -5.59703713E-15 -2.79114355E-14  1.46070751E-02 -1.62438085E-02  5.72533383E-15
 -5.76680598E-16 -3.62999285E-15  7.45342277E-01  6.70241254E-01 -3.33473372E-14
  3.58106946E-15  1.78581288E-14 -5.28206047E-03 -4.74983768E-03 -3.93113244E-15
 -2.69807294E-16 -3.21497456E-16 -2.61783303E-01 -2.35405900E-01 -5.76350458E-15
  2.11254505E-16  2.14972249E-15  7.89960573E-01  7.10363791E-01 -1.63099202E-15
  6.34750872E-17  1.39010802E-15  2.26082317E-01 -2.51415006E-01  7.15505840E-16
 -2.21908634E-16 -7.02351195E-16 -7.10229477E-01  7.89811209E-01  1.92620547E-15
 -2.75881611E-02  9.77196432E-01 -6.23145819E-16  3.73070877E-16  7.20339095E-01
 -2.11105197E-01 -5.12586982E-01  2.12472701E-15 -1.17730244E-15  1.40747612E+00
  2.76999108E-02 -8.32750623E-01  5.41265171E-17 -6.52911566E-17 -5.50276828E-01
 -8.38794669E-01  1.31469379E+00 -1.97906935E-16  2.77366907E-16 -6.37019325E-01
Cartesian Gradient                         R   N=           6
  0.00000000E+00  0.00000000E+00  0.00000000E+00  0.00000000E+00  0.00000000E+00
  0.00000000E+00
