run                                                                     
SP        UHF                                                         Gen                 
Number of atoms                            I                2
Info1-9                                    I   N=           9
          32          32           0           0           0         110
           1           1           2
Charge                                     I                0
Multiplicity                               I                1
Number of electrons                        I               14
Number of alpha electrons                  I                7
Number of beta electrons                   I                7
Number of basis functions                  I               10
Number of independent functions            I               10
Number of point charges in /Mol/           I                0
Number of translation vectors              I                0
Atomic numbers                             I   N=           2
           7           7
Nuclear charges                            R   N=           2
  6.95000000E+00  6.95000000E+00
Current cartesian coordinates              R   N=           6
  0.00000000E+00  0.00000000E+00  0.00000000E+00  0.00000000E+00  0.00000000E+00
  1.88972613E+00
Force Field                                I                0
Int Atom Types                             I   N=           2
           0           0
MM charges                                 R   N=           2
  0.00000000E+00  0.00000000E+00
Integer atomic weights                     I   N=           2
          14          14
Real atomic weights                        R   N=           2
  1.40030740E+01  1.40030740E+01
Atom fragment info                         I   N=           2
           0           0
Atom residue num                           I   N=           2
           0           0
Nuclear spins                              I   N=           2
           2           2
Nuclear ZEff                               R   N=           2
 -4.55000000E+00 -4.55000000E+00
Nuclear ZNuc                               R   N=           2
  7.00000000E+00  7.00000000E+00
Nuclear QMom                               R   N=           2
  2.04400000E+00  2.04400000E+00
Nuclear GFac                               R   N=           2
  4.03761000E-01  4.03761000E-01
MicOpt                                     I   N=           2
          -1          -1
Number of contracted shells                I                4
Number of primitive shells                 I               12
Pure/Cartesian d shells                    I                0
Pure/Cartesian f shells                    I                0
Highest angular momentum                   I                1
Largest degree of contraction              I                3
Shell types                                I   N=           4
           0          -1           0          -1
Number of primitives per shell             I   N=           4
           3           3           3           3
Shell to atom map                          I   N=           4
           1           1           2           2
Primitive exponents                        R   N=          12
  9.91061690E+01  1.80523124E+01  4.88566024E+00  3.78045588E+00  8.78496645E-01
  2.85714374E-01  9.91061690E+01  1.80523124E+01  4.88566024E+00  3.78045588E+00
  8.78496645E-01  2.85714374E-01
Contraction coefficients                   R   N=          12
  1.54328967E-01  5.35328142E-01  4.44634542E-01 -9.99672292E-02  3.99512826E-01
  7.00115469E-01  1.54328967E-01  5.35328142E-01  4.44634542E-01 -9.99672292E-02
  3.99512826E-01  7.00115469E-01
P(S=P) Contraction coefficients            R   N=          12
  0.00000000E+00  0.00000000E+00  0.00000000E+00  1.55916275E-01  6.07683719E-01
  3.91957393E-01  0.00000000E+00  0.00000000E+00  0.00000000E+00  1.55916275E-01
  6.07683719E-01  3.91957393E-01
Coordinates of each shell                  R   N=          12
  0.00000000E+00  0.00000000E+00  0.00000000E+00  0.00000000E+00  0.00000000E+00
  0.00000000E+00  0.00000000E+00  0.00000000E+00  1.88972613E+00  0.00000000E+00
  0.00000000E+00  1.88972613E+00
Constraint Structure                       R   N=           6
  0.00000000E+00  0.00000000E+00  0.00000000E+00  0.00000000E+00  0.00000000E+00
  1.88972613E+00
Num ILSW                                   I              100
ILSW                                       I   N=         100
           1           0           0           0           2           0
           0           0           0           0           0          -1
           0           0           0           0           0           0
           0           0           1           0           0           0
           1           1           0           0           0           8
           0           0      100000           0          -1           0
           0           0           0           0           0           0
           0           0           0           1           0           0
           0           0           1           0           0           0
           0           0           4          41           0           0
           0           0           0           0           0           0
           0           0           0           0           0           0
           0           0           0           0           0           0
           0           0           0           0           0           0
           0           0           0           0           0           0
           0           0           0           0           0           0
           0           0           0           0
Num RLSW                                   I               41
RLSW                                       R   N=          41
  1.00000000E+00  1.00000000E+00  1.00000000E+00  1.00000000E+00  1.00000000E+00
  0.00000000E+00  0.00000000E+00  1.00000000E+00  0.00000000E+00  0.00000000E+00
  0.00000000E+00  0.00000000E+00  1.00000000E+00  0.00000000E+00  0.00000000E+00
  0.00000000E+00  0.00000000E+00  1.00000000E+00  0.00000000E+00  0.00000000E+00
  0.00000000E+00  0.00000000E+00  1.00000000E+00  0.00000000E+00  0.00000000E+00
  0.00000000E+00  0.00000000E+00  1.00000000E+00  0.00000000E+00  0.00000000E+00
  0.00000000E+00  0.00000000E+00  1.00000000E+00  0.00000000E+00  0.00000000E+00
  0.00000000E+00  0.00000000E+00  0.00000000E+00  1.00000000E+00  1.00000000E+00
  0.00000000E+00
MxBond                                     I                1
NBond                                      I   N=           2
           1           1
IBond                                      I   N=           2
           2           1
RBond                                      R   N=           2
  3.00000000E+00  3.00000000E+00
Virial Ratio                               R      1.991953957340764E+00
SCF Energy                                 R     -1.056260837001043E+02
Total Energy                               R     -1.056260837001043E+02
S**2                                       R     -2.309263891220326E-14
S**2 after annihilation                    R     -1.652011860642206E-13
RMS Density                                R      2.285115757717303E-11
External E-field                           R   N=          35
  0.00000000E+00  0.00000000E+00  0.00000000E+00  0.00000000E+00  0.00000000E+00
  0.00000000E+00  0.00000000E+00  0.00000000E+00  0.00000000E+00  0.00000000E+00
  0.00000000E+00  0.00000000E+00  0.00000000E+00  0.00000000E+00  0.00000000E+00
  0.00000000E+00  0.00000000E+00  0.00000000E+00  0.00000000E+00  0.00000000E+00
  0.00000000E+00  0.00000000E+00  0.00000000E+00  0.00000000E+00  0.00000000E+00
  0.00000000E+00  0.00000000E+00  0.00000000E+00  0.00000000E+00  0.00000000E+00
  0.00000000E+00  0.00000000E+00  0.00000000E+00  0.00000000E+00  0.00000000E+00
IOpCl                                      I                1
IROHF                                      I                0
Alpha Orbital Energies                     R   N=          10
 -1.52062191E+01 -1.52013473E+01 -1.45221757E+00 -6.37844468E-01 -5.75723598E-01
 -5.75723598E-01 -4.94749358E-01  4.04324361E-01  4.04324361E-01  1.48147396E+00
Beta Orbital Energies                      R   N=          10
 -1.52062191E+01 -1.52013473E+01 -1.45221757E+00 -6.37844468E-01 -5.75723598E-01
 -5.75723598E-01 -4.94749358E-01  4.04324361E-01  4.04324361E-01  1.48147396E+00
Alpha MO coefficients                      R   N=         100
  7.01986857E-01  1.47873587E-02 -3.66230405E-16 -3.26565856E-16  3.59510627E-03
  7.01986857E-01  1.47873587E-02 -7.07006834E-16 -2.91849302E-16 -3.59510627E-03
  7.02334231E-01  3.59093310E-02 -2.73526316E-16  4.27500538E-18  1.35309555E-02
 -7.02334231E-01 -3.59093310E-02  3.00833893E-16 -1.63802303E-16  1.35309555E-02
 -1.86984181E-01  4.61675771E-01  8.45346964E-16  3.45927329E-16  2.64586130E-01
 -1.86984181E-01  4.61675771E-01  4.72618927E-16 -5.39498776E-16 -2.64586130E-01
 -1.68709653E-01  7.18971677E-01 -5.77607306E-16 -3.20698046E-15 -3.02179384E-01
  1.68709653E-01 -7.18971677E-01 -4.55376331E-16 -2.73478283E-15 -3.02179384E-01
 -1.00271597E-15  5.48103768E-15  5.57848253E-01  2.50172681E-01 -5.87225179E-15
 -9.57597681E-17  1.25004481E-15  5.57848253E-01  2.50172681E-01  4.76465250E-15
 -1.18854244E-16 -6.57608505E-16 -2.50172681E-01  5.57848253E-01  3.73636556E-15
  1.14045022E-15 -6.00760060E-15 -2.50172681E-01  5.57848253E-01 -6.17718854E-15
  6.48694581E-02 -4.25429049E-01  6.21756676E-15 -2.38886564E-15  6.06962152E-01
  6.48694581E-02 -4.25429049E-01  6.84783664E-15 -1.69874650E-15 -6.06962152E-01
  2.13454045E-16 -5.79819697E-16  8.47149735E-01 -1.93031519E-01 -2.67287483E-17
 -2.37450675E-16  7.52797759E-16 -8.47149735E-01  1.93031519E-01  3.31851785E-17
  1.00282810E-16  2.17686681E-16  1.93031519E-01  8.47149735E-01  1.31044211E-16
  1.67266115E-16 -5.19952121E-16 -1.93031519E-01 -8.47149735E-01  1.30590628E-16
 -1.25709051E-01  1.58689987E+00  4.87853541E-16 -2.11355770E-16  1.38311089E+00
  1.25709051E-01 -1.58689987E+00 -7.04839482E-17  1.97832121E-16  1.38311089E+00
Beta MO coefficients                       R   N=         100
  7.01986857E-01  1.47873587E-02 -3.66230405E-16 -3.26565856E-16  3.59510627E-03
  7.01986857E-01  1.47873587E-02 -7.07006834E-16 -2.91849302E-16 -3.59510627E-03
  7.02334231E-01  3.59093310E-02 -2.73526316E-16  4.27500538E-18  1.35309555E-02
 -7.02334231E-01 -3.59093310E-02  3.00833893E-16 -1.63802303E-16  1.35309555E-02
 -1.86984181E-01  4.61675771E-01  8.45346964E-16  3.45927329E-16  2.64586130E-01
 -1.86984181E-01  4.61675771E-01  4.72618927E-16 -5.39498776E-16 -2.64586130E-01
 -1.68709653E-01  7.18971677E-01 -5.77607306E-16 -3.20698046E-15 -3.02179384E-01
  1.68709653E-01 -7.18971677E-01 -4.55376331E-16 -2.73478283E-15 -3.02179384E-01
 -1.00271597E-15  5.48103768E-15  5.57848253E-01  2.50172681E-01 -5.87225179E-15
 -9.57597681E-17  1.25004481E-15  5.57848253E-01  2.50172681E-01  4.76465250E-15
 -1.18854244E-16 -6.57608505E-16 -2.50172681E-01  5.57848253E-01  3.73636556E-15
  1.14045022E-15 -6.00760060E-15 -2.50172681E-01  5.57848253E-01 -6.17718854E-15
  6.48694581E-02 -4.25429049E-01  6.21756676E-15 -2.38886564E-15  6.06962152E-01
  6.48694581E-02 -4.25429049E-01  6.84783664E-15 -1.69874650E-15 -6.06962152E-01
  2.13454045E-16 -5.79819697E-16  8.47149735E-01 -1.93031519E-01 -2.67287483E-17
 -2.37450675E-16  7.52797759E-16 -8.47149735E-01  1.93031519E-01  3.31851785E-17
  1.00282810E-16  2.17686681E-16  1.93031519E-01  8.47149735E-01  1.31044211E-16
  1.67266115E-16 -5.19952121E-16 -1.93031519E-01 -8.47149735E-01  1.30590628E-16
 -1.25709051E-01  1.58689987E+00  4.87853541E-16 -2.11355770E-16  1.38311089E+00
  1.25709051E-01 -1.58689987E+00 -7.04839482E-17  1.97832121E-16  1.38311089E+00
Total SCF Density                          R   N=          55
  2.10738599E+00 -3.99239993E-01  1.82512563E+00 -1.27222698E-15  1.07344931E-15
  7.47562088E-01 -4.43992052E-16 -2.60088833E-16 -4.66293670E-15  7.47562088E-01
  1.05814870E-01 -7.05571389E-01 -8.70877947E-17  4.49583515E-16  1.05983453E+00
  2.04407176E-02 -1.49315520E-02 -5.11790392E-16 -7.61403313E-16 -1.36120459E-01
  2.10738599E+00 -1.49315520E-02 -2.47713387E-01  7.30210841E-16  8.76284451E-16
  1.61518734E-01 -3.99239993E-01  1.82512563E+00 -7.63966519E-16  3.99952700E-16
  7.47562088E-01 -4.05231404E-15  4.19996462E-16 -1.53461510E-15 -3.77307766E-16
  7.47562088E-01 -3.70015757E-16 -9.96892755E-16  5.38458167E-15  7.47562088E-01
  5.29117320E-16  1.03415966E-16 -1.19436419E-15  6.05071548E-15  7.47562088E-01
  1.36120459E-01 -1.61518734E-01  7.55957379E-16  1.49581542E-16 -6.93852665E-01
 -1.05814870E-01  7.05571389E-01  1.32216969E-16 -5.09802807E-16  1.05983453E+00
Spin SCF Density                           R   N=          55
  0.00000000E+00  0.00000000E+00  0.00000000E+00  0.00000000E+00  0.00000000E+00
  0.00000000E+00  0.00000000E+00  0.00000000E+00  0.00000000E+00  0.00000000E+00
  0.00000000E+00  0.00000000E+00  0.00000000E+00  0.00000000E+00  0.00000000E+00
  0.00000000E+00  0.00000000E+00  0.00000000E+00  0.00000000E+00  0.00000000E+00
  0.00000000E+00  0.00000000E+00  0.00000000E+00  0.00000000E+00  0.00000000E+00
  0.00000000E+00  0.00000000E+00  0.00000000E+00  0.00000000E+00  0.00000000E+00
  0.00000000E+00  0.00000000E+00  0.00000000E+00  0.00000000E+00  0.00000000E+00
  0.00000000E+00  0.00000000E+00  0.00000000E+00  0.00000000E+00  0.00000000E+00
  0.00000000E+00  0.00000000E+00  0.00000000E+00  0.00000000E+00  0.00000000E+00
  0.00000000E+00  0.00000000E+00  0.00000000E+00  0.00000000E+00  0.00000000E+00
  0.00000000E+00  0.00000000E+00  0.00000000E+00  0.00000000E+00  0.00000000E+00
Mulliken Charges                           R   N=           2
 -5.00000000E-02 -5.00000000E-02
Cartesian Gradient                         R   N=           6
  0.00000000E+00  0.00000000E+00  0.00000000E+00  0.00000000E+00  0.00000000E+00
  0.00000000E+00
Dipole Moment                              R   N=           3
 -1.25132948E-15  2.04195441E-15 -9.44863066E-02
Quadrupole Moment                          R   N=           6
  7.26007277E-01  7.26007277E-01 -1.45201455E+00 -1.54989695E-15  3.72311333E-16
  3.14593530E-15
Anisotropic Hyperfine tensors              R   N=          12
  0.00000000E+00  0.00000000E+00  0.00000000E+00  0.00000000E+00  0.00000000E+00
  0.00000000E+00  0.00000000E+00  0.00000000E+00  0.00000000E+00  0.00000000E+00
  0.00000000E+00  0.00000000E+00
Isotropic Hyperfine splittings             R   N=           2
  0.00000000E+00  0.00000000E+00
QEq coupling tensors                       R   N=          12
 -1.44262384E-01 -1.21324084E-14 -1.44262384E-01 -4.18302818E-17 -3.10144703E-16
  2.88524768E-01 -1.44262384E-01  1.66771540E-14 -1.44262384E-01 -2.44068164E-16
  0.00000000E+00  2.88524768E-01
