run                                                                     
SP        UHF                                                         Gen                 
Number of atoms                            I                2
Info1-9                                    I   N=           9
          32          32           0           0           0         110
           1           1           2
Charge                                     I                0
Multiplicity                               I                1
Number of electrons                        I               14
Number of alpha electrons                  I                7
Number of beta electrons                   I                7
Number of basis functions                  I               10
Number of independent functions            I               10
Number of point charges in /Mol/           I                0
Number of translation vectors              I                0
Atomic numbers                             I   N=           2
           7           7
Nuclear charges                            R   N=           2
  6.95000000E+00  6.95000000E+00
Current cartesian coordinates              R   N=           6
  0.00000000E+00  0.00000000E+00  0.00000000E+00  0.00000000E+00  0.00000000E+00
  1.88972613E+00
Force Field                                I                0
Int Atom Types                             I   N=           2
           0           0
MM charges                                 R   N=           2
  0.00000000E+00  0.00000000E+00
Integer atomic weights                     I   N=           2
          14          14
Real atomic weights                        R   N=           2
  1.40030740E+01  1.40030740E+01
Atom fragment info                         I   N=           2
           0           0
Atom residue num                           I   N=           2
           0           0
Nuclear spins                              I   N=           2
           2           2
Nuclear ZEff                               R   N=           2
 -4.55000000E+00 -4.55000000E+00
Nuclear ZNuc                               R   N=           2
  7.00000000E+00  7.00000000E+00
Nuclear QMom                               R   N=           2
  2.04400000E+00  2.04400000E+00
Nuclear GFac                               R   N=           2
  4.03761000E-01  4.03761000E-01
MicOpt                                     I   N=           2
          -1          -1
Number of contracted shells                I                4
Number of primitive shells                 I               12
Pure/Cartesian d shells                    I                0
Pure/Cartesian f shells                    I                0
Highest angular momentum                   I                1
Largest degree of contraction              I                3
Shell types                                I   N=           4
           0          -1           0          -1
Number of primitives per shell             I   N=           4
           3           3           3           3
Shell to atom map                          I   N=           4
           1           1           2           2
Primitive exponents                        R   N=          12
  9.91061690E+01  1.80523124E+01  4.88566024E+00  3.78045588E+00  8.78496645E-01
  2.85714374E-01  9.91061690E+01  1.80523124E+01  4.88566024E+00  3.78045588E+00
  8.78496645E-01  2.85714374E-01
Contraction coefficients                   R   N=          12
  1.54328967E-01  5.35328142E-01  4.44634542E-01 -9.99672292E-02  3.99512826E-01
  7.00115469E-01  1.54328967E-01  5.35328142E-01  4.44634542E-01 -9.99672292E-02
  3.99512826E-01  7.00115469E-01
P(S=P) Contraction coefficients            R   N=          12
  0.00000000E+00  0.00000000E+00  0.00000000E+00  1.55916275E-01  6.07683719E-01
  3.91957393E-01  0.00000000E+00  0.00000000E+00  0.00000000E+00  1.55916275E-01
  6.07683719E-01  3.91957393E-01
Coordinates of each shell                  R   N=          12
  0.00000000E+00  0.00000000E+00  0.00000000E+00  0.00000000E+00  0.00000000E+00
  0.00000000E+00  0.00000000E+00  0.00000000E+00  1.88972613E+00  0.00000000E+00
  0.00000000E+00  1.88972613E+00
Constraint Structure                       R   N=           6
  0.00000000E+00  0.00000000E+00  0.00000000E+00  0.00000000E+00  0.00000000E+00
  1.88972613E+00
Num ILSW                                   I              100
ILSW                                       I   N=         100
           1           0           0           0           2           0
           0           0           0           0           0          -1
           0           0           0           0           0           0
           0           0           1           0           0           0
           1           1           0           0           0           8
           0           0      100000           0          -1           0
           0           0           0           0           0           0
           0           0           0           1           0           0
           0           0           1           0           0           0
           0           0           4          41           0           0
           0           0           0           0           0           0
           0           0           0           0           0           0
           0           0           0           0           0           0
           0           0           0           0           0           0
           0           0           0           0           0           0
           0           0           0           0           0           0
           0           0           0           0
Num RLSW                                   I               41
RLSW                                       R   N=          41
  1.00000000E+00  1.00000000E+00  1.00000000E+00  1.00000000E+00  1.00000000E+00
  0.00000000E+00  0.00000000E+00  1.00000000E+00  0.00000000E+00  0.00000000E+00
  0.00000000E+00  0.00000000E+00  1.00000000E+00  0.00000000E+00  0.00000000E+00
  0.00000000E+00  0.00000000E+00  1.00000000E+00  0.00000000E+00  0.00000000E+00
  0.00000000E+00  0.00000000E+00  1.00000000E+00  0.00000000E+00  0.00000000E+00
  0.00000000E+00  0.00000000E+00  1.00000000E+00  0.00000000E+00  0.00000000E+00
  0.00000000E+00  0.00000000E+00  1.00000000E+00  0.00000000E+00  0.00000000E+00
  0.00000000E+00  0.00000000E+00  0.00000000E+00  1.00000000E+00  1.00000000E+00
  0.00000000E+00
MxBond                                     I                1
NBond                                      I   N=           2
           1           1
IBond                                      I   N=           2
           2           1
RBond                                      R   N=           2
  3.00000000E+00  3.00000000E+00
Virial Ratio                               R      1.991953957340766E+00
SCF Energy                                 R     -1.056260837001043E+02
Total Energy                               R     -1.056260837001043E+02
S**2                                       R      1.776356839400251E-15
S**2 after annihilation                    R      1.731947918415249E-13
RMS Density                                R      5.458436631334081E-10
External E-field                           R   N=          35
  0.00000000E+00  0.00000000E+00  0.00000000E+00  0.00000000E+00  0.00000000E+00
  0.00000000E+00  0.00000000E+00  0.00000000E+00  0.00000000E+00  0.00000000E+00
  0.00000000E+00  0.00000000E+00  0.00000000E+00  0.00000000E+00  0.00000000E+00
  0.00000000E+00  0.00000000E+00  0.00000000E+00  0.00000000E+00  0.00000000E+00
  0.00000000E+00  0.00000000E+00  0.00000000E+00  0.00000000E+00  0.00000000E+00
  0.00000000E+00  0.00000000E+00  0.00000000E+00  0.00000000E+00  0.00000000E+00
  0.00000000E+00  0.00000000E+00  0.00000000E+00  0.00000000E+00  0.00000000E+00
IOpCl                                      I                1
IROHF                                      I                0
Alpha Orbital Energies                     R   N=          10
 -1.52062191E+01 -1.52013473E+01 -1.45221757E+00 -6.37844468E-01 -5.75723598E-01
 -5.75723598E-01 -4.94749358E-01  4.04324361E-01  4.04324361E-01  1.48147396E+00
Beta Orbital Energies                      R   N=          10
 -1.52062191E+01 -1.52013473E+01 -1.45221757E+00 -6.37844468E-01 -5.75723598E-01
 -5.75723598E-01 -4.94749358E-01  4.04324361E-01  4.04324361E-01  1.48147396E+00
Alpha MO coefficients                      R   N=         100
  7.01986857E-01  1.47873587E-02 -6.42722892E-16  6.45432923E-16  3.59510627E-03
  7.01986857E-01  1.47873587E-02 -1.04061958E-15  1.26145616E-15 -3.59510627E-03
  7.02334231E-01  3.59093310E-02 -7.01742135E-17  3.01224410E-16  1.35309555E-02
 -7.02334231E-01 -3.59093310E-02  6.97788750E-17 -2.99678210E-16  1.35309555E-02
 -1.86984181E-01  4.61675771E-01 -6.49516383E-16  1.50467135E-16  2.64586130E-01
 -1.86984181E-01  4.61675771E-01 -4.09203310E-16 -1.69724179E-16 -2.64586130E-01
 -1.68709653E-01  7.18971677E-01  7.38931097E-16 -7.00585729E-16 -3.02179384E-01
  1.68709653E-01 -7.18971677E-01  5.88264835E-17 -4.95296975E-16 -3.02179384E-01
  3.94647362E-16 -3.10494011E-15  5.05524385E-01  3.43840283E-01  4.76622342E-15
  3.97965497E-16 -3.10921167E-15  5.05524385E-01  3.43840283E-01 -4.78204368E-15
 -1.19627100E-15  6.98333015E-15 -3.43840283E-01  5.05524385E-01 -8.86542416E-15
 -7.69083868E-16  4.92844196E-15 -3.43840283E-01  5.05524385E-01  8.47331898E-15
  6.48694581E-02 -4.25429049E-01 -8.86967987E-15  5.09315245E-15  6.06962152E-01
  6.48694581E-02 -4.25429049E-01 -8.15794196E-15  3.48230965E-15 -6.06962152E-01
  2.51493625E-16 -2.67175881E-16  7.04124200E-01  5.09051031E-01  3.09272784E-16
 -1.99729999E-16  1.72534587E-16 -7.04124200E-01 -5.09051031E-01  1.39387634E-16
 -4.69057448E-17  4.57508513E-16 -5.09051031E-01  7.04124200E-01 -8.40468665E-16
  1.54023431E-16  2.60948228E-16  5.09051031E-01 -7.04124200E-01  9.05522778E-17
 -1.25709051E-01  1.58689987E+00 -9.25183186E-17  4.30828056E-17  1.38311089E+00
  1.25709051E-01 -1.58689987E+00  1.75070871E-16 -1.57031345E-16  1.38311089E+00
Beta MO coefficients                       R   N=         100
  7.01986857E-01  1.47873587E-02 -6.42722892E-16  6.45432923E-16  3.59510627E-03
  7.01986857E-01  1.47873587E-02 -1.04061958E-15  1.26145616E-15 -3.59510627E-03
  7.02334231E-01  3.59093310E-02 -7.01742135E-17  3.01224410E-16  1.35309555E-02
 -7.02334231E-01 -3.59093310E-02  6.97788750E-17 -2.99678210E-16  1.35309555E-02
 -1.86984181E-01  4.61675771E-01 -6.49516383E-16  1.50467135E-16  2.64586130E-01
 -1.86984181E-01  4.61675771E-01 -4.09203310E-16 -1.69724179E-16 -2.64586130E-01
 -1.68709653E-01  7.18971677E-01  7.38931097E-16 -7.00585729E-16 -3.02179384E-01
  1.68709653E-01 -7.18971677E-01  5.88264835E-17 -4.95296975E-16 -3.02179384E-01
  3.94647362E-16 -3.10494011E-15  5.05524385E-01  3.43840283E-01  4.76622342E-15
  3.97965497E-16 -3.10921167E-15  5.05524385E-01  3.43840283E-01 -4.78204368E-15
 -1.19627100E-15  6.98333015E-15 -3.43840283E-01  5.05524385E-01 -8.86542416E-15
 -7.69083868E-16  4.92844196E-15 -3.43840283E-01  5.05524385E-01  8.47331898E-15
  6.48694581E-02 -4.25429049E-01 -8.86967987E-15  5.09315245E-15  6.06962152E-01
  6.48694581E-02 -4.25429049E-01 -8.15794196E-15  3.48230965E-15 -6.06962152E-01
  2.51493625E-16 -2.67175881E-16  7.04124200E-01  5.09051031E-01  3.09272784E-16
 -1.99729999E-16  1.72534587E-16 -7.04124200E-01 -5.09051031E-01  1.39387634E-16
 -4.69057448E-17  4.57508513E-16 -5.09051031E-01  7.04124200E-01 -8.40468665E-16
  1.54023431E-16  2.60948228E-16  5.09051031E-01 -7.04124200E-01  9.05522778E-17
 -1.25709051E-01  1.58689987E+00 -9.25183186E-17  4.30828056E-17  1.38311089E+00
  1.25709051E-01 -1.58689987E+00  1.75070871E-16 -1.57031345E-16  1.38311089E+00
Cartesian Gradient                         R   N=           6
  0.00000000E+00  0.00000000E+00  0.00000000E+00  0.00000000E+00  0.00000000E+00
  0.00000000E+00
