 Entering Gaussian System, Link 0=/home/grudorff/opt/gaussian/bin//g09
 Input=run.inp
 Output=run.log
 Initial command:
 /home/grudorff/opt/gaussian/bin/l1.exe "/home/grudorff/mqmc-tmp-JKUMENTA7Z/Gau-30920.inp" -scrdir="/home/grudorff/mqmc-tmp-JKUMENTA7Z/"
 Entering Link 1 = /home/grudorff/opt/gaussian/bin/l1.exe PID=     30923.
  
 Copyright (c) 1988,1990,1992,1993,1995,1998,2003,2009,2013,
            Gaussian, Inc.  All Rights Reserved.
  
 This is part of the Gaussian(R) 09 program.  It is based on
 the Gaussian(R) 03 system (copyright 2003, Gaussian, Inc.),
 the Gaussian(R) 98 system (copyright 1998, Gaussian, Inc.),
 the Gaussian(R) 94 system (copyright 1995, Gaussian, Inc.),
 the Gaussian 92(TM) system (copyright 1992, Gaussian, Inc.),
 the Gaussian 90(TM) system (copyright 1990, Gaussian, Inc.),
 the Gaussian 88(TM) system (copyright 1988, Gaussian, Inc.),
 the Gaussian 86(TM) system (copyright 1986, Carnegie Mellon
 University), and the Gaussian 82(TM) system (copyright 1983,
 Carnegie Mellon University). Gaussian is a federally registered
 trademark of Gaussian, Inc.
  
 This software contains proprietary and confidential information,
 including trade secrets, belonging to Gaussian, Inc.
  
 This software is provided under written license and may be
 used, copied, transmitted, or stored only in accord with that
 written license.
  
 The following legend is applicable only to US Government
 contracts under FAR:
  
                    RESTRICTED RIGHTS LEGEND
  
 Use, reproduction and disclosure by the US Government is
 subject to restrictions as set forth in subparagraphs (a)
 and (c) of the Commercial Computer Software - Restricted
 Rights clause in FAR 52.227-19.
  
 Gaussian, Inc.
 340 Quinnipiac St., Bldg. 40, Wallingford CT 06492
  
  
 ---------------------------------------------------------------
 Warning -- This program may not be used in any manner that
 competes with the business of Gaussian, Inc. or will provide
 assistance to any competitor of Gaussian, Inc.  The licensee
 of this program is prohibited from giving any competitor of
 Gaussian, Inc. access to this program.  By using this program,
 the user acknowledges that Gaussian, Inc. is engaged in the
 business of creating and licensing software in the field of
 computational chemistry and represents and warrants to the
 licensee that it is not a competitor of Gaussian, Inc. and that
 it will not use this program in any manner prohibited above.
 ---------------------------------------------------------------
  

 Cite this work as:
 Gaussian 09, Revision D.01,
 M. J. Frisch, G. W. Trucks, H. B. Schlegel, G. E. Scuseria, 
 M. A. Robb, J. R. Cheeseman, G. Scalmani, V. Barone, B. Mennucci, 
 G. A. Petersson, H. Nakatsuji, M. Caricato, X. Li, H. P. Hratchian, 
 A. F. Izmaylov, J. Bloino, G. Zheng, J. L. Sonnenberg, M. Hada, 
 M. Ehara, K. Toyota, R. Fukuda, J. Hasegawa, M. Ishida, T. Nakajima, 
 Y. Honda, O. Kitao, H. Nakai, T. Vreven, J. A. Montgomery, Jr., 
 J. E. Peralta, F. Ogliaro, M. Bearpark, J. J. Heyd, E. Brothers, 
 K. N. Kudin, V. N. Staroverov, T. Keith, R. Kobayashi, J. Normand, 
 K. Raghavachari, A. Rendell, J. C. Burant, S. S. Iyengar, J. Tomasi, 
 M. Cossi, N. Rega, J. M. Millam, M. Klene, J. E. Knox, J. B. Cross, 
 V. Bakken, C. Adamo, J. Jaramillo, R. Gomperts, R. E. Stratmann, 
 O. Yazyev, A. J. Austin, R. Cammi, C. Pomelli, J. W. Ochterski, 
 R. L. Martin, K. Morokuma, V. G. Zakrzewski, G. A. Voth, 
 P. Salvador, J. J. Dannenberg, S. Dapprich, A. D. Daniels, 
 O. Farkas, J. B. Foresman, J. V. Ortiz, J. Cioslowski, 
 and D. J. Fox, Gaussian, Inc., Wallingford CT, 2013.
 
 ******************************************
 Gaussian 09:  ES64L-G09RevD.01 24-Apr-2013
                23-Apr-2019 
 ******************************************
 %Chk=run.chk
 ----------------------------------------------------------------------
 #UHF Gen scf=tight Massage guess=indo integral=NoXCTest Pop=Dipole Den
 sity=Current NoSymm
 ----------------------------------------------------------------------
 1/30=1,38=1/1;
 2/12=2,15=1,17=6,18=5,40=1/2;
 3/5=7,10=10,11=2,16=1,25=1,30=1,47=8,116=2/1,2,3;
 4/5=4,11=3/1;
 5/5=2,32=2,38=5/2;
 6/7=2,8=2,9=2,10=2,15=16,22=-1,28=1/1,2;
 99/5=1,9=1/99;
 ---
 run
 ---
 Symbolic Z-matrix:
 Charge =  0 Multiplicity = 1
 7                     0.        0.        0. 
 7                     0.        0.        1. 
 
                          Input orientation:                          
 ---------------------------------------------------------------------
 Center     Atomic      Atomic             Coordinates (Angstroms)
 Number     Number       Type             X           Y           Z
 ---------------------------------------------------------------------
      1          7           0        0.000000    0.000000    0.000000
      2          7           0        0.000000    0.000000    1.000000
 ---------------------------------------------------------------------
 Symmetry turned off by external request.
 Stoichiometry    N2
 Framework group  D*H[C*(N.N)]
 Deg. of freedom     1
 Full point group                 D*H     NOp   8
 Rotational constants (GHZ):      0.0000000     72.1811518     72.1811518
 General basis read from cards:  (5D, 7F)
 The nuclear charge for atom    1 has been changed to Z=  1   1.000000
 The nuclear charge for atom    2 has been changed to Z= 13  13.000000
    10 basis functions,    30 primitive gaussians,    10 cartesian basis functions
     7 alpha electrons        7 beta electrons
       nuclear repulsion energy         6.8793037117 Hartrees.



 Warning!  Al atom    2 has 13 valence electrons but only   5 basis functions.
 This is less than a minimal basis set!



 NAtoms=    2 NActive=    2 NUniq=    2 SFac= 1.00D+00 NAtFMM=   60 NAOKFM=F Big=F
 Integral buffers will be    131072 words long.
 Raffenetti 2 integral format.
 Two-electron integral symmetry is turned off.
 One-electron integrals computed using PRISM.
 NBasis=    10 RedAO= T EigKep=  1.09D-01  NBF=    10
 NBsUse=    10 1.00D-06 EigRej= -1.00D+00 NBFU=    10
 Projected New-EHT guess.
 Enter ItEHT:  IZDO=4 IZDPar=0 Conv= 1.00D-06 N=    5
 It=   1                  EEH=  7.90469047283     EQH= 0.000000000000E+00 EH=  7.90469047283    
 Initial guess <Sx>= 0.0000 <Sy>= 0.0000 <Sz>= 0.0000 <S**2>= 0.0000 S= 0.0000
 Keep R1 and R2 ints in memory in canonical form, NReq=825412.
 Requested convergence on RMS density matrix=1.00D-08 within 128 cycles.
 Requested convergence on MAX density matrix=1.00D-06.
 Requested convergence on             energy=1.00D-06.
 No special actions if energy rises.
 SCF Done:  E(UHF) =  -177.782646018     A.U. after    7 cycles
            NFock=  7  Conv=0.35D-09     -V/T= 3.5870
 <Sx>= 0.0000 <Sy>= 0.0000 <Sz>= 0.0000 <S**2>= 0.0000 S= 0.0000
 <L.S>= 0.000000000000E+00
 Annihilation of the first spin contaminant:
 S**2 before annihilation     0.0000,   after     0.0000

 **********************************************************************

            Population analysis using the SCF density.

 **********************************************************************

 Alpha  occ. eigenvalues --  -50.71486  -3.63305  -3.19640  -2.85723  -2.83991
 Alpha  occ. eigenvalues --    0.20256   1.48895
 Alpha virt. eigenvalues --    2.05757   2.78638  19.05482
  Beta  occ. eigenvalues --  -50.71486  -3.63305  -3.19640  -2.85723  -2.83991
  Beta  occ. eigenvalues --    0.20256   1.48895
  Beta virt. eigenvalues --    2.05757   2.78638  19.05482
          Condensed to atoms (all electrons):
               1          2
     1  H    8.161154  -4.510034
     2  Al  -4.510034  14.858914
          Atomic-Atomic Spin Densities.
               1          2
     1  H    0.000000   0.000000
     2  Al   0.000000   0.000000
 Mulliken charges and spin densities:
               1          2
     1  H   -2.651120   0.000000
     2  Al   2.651120   0.000000
 Sum of Mulliken charges =   0.00000   0.00000
 Mulliken charges and spin densities with hydrogens summed into heavy atoms:
               1          2
     2  Al   0.000000   0.000000
 Electronic spatial extent (au):  <R**2>=             61.0633
 Charge=              0.0000 electrons
 Dipole moment (field-independent basis, Debye):
    X=              0.0000    Y=              0.0000    Z=             12.8072  Tot=             12.8072
 Quadrupole moment (field-independent basis, Debye-Ang):
   XX=             -9.6560   YY=            -11.6783   ZZ=              1.6437
   XY=             -0.0930   XZ=              0.0000   YZ=              0.0000
 Traceless Quadrupole moment (field-independent basis, Debye-Ang):
   XX=             -3.0924   YY=             -5.1148   ZZ=              8.2072
   XY=             -0.0930   XZ=              0.0000   YZ=              0.0000
 Octapole moment (field-independent basis, Debye-Ang**2):
  XXX=              0.0000  YYY=              0.0000  ZZZ=            -11.2990  XYY=              0.0000
  XXY=              0.0000  XXZ=             -7.2164  XZZ=              0.0000  YZZ=              0.0000
  YYZ=             -7.1082  XYZ=              0.0050
 Hexadecapole moment (field-independent basis, Debye-Ang**3):
 XXXX=             -5.5918 YYYY=             -7.3237 ZZZZ=            -40.7650 XXXY=             -0.0398
 XXXZ=              0.0000 YYYX=             -0.0398 YYYZ=              0.0000 ZZZX=              0.0000
 ZZZY=              0.0000 XXYY=             -2.1526 XXZZ=             -9.4426 YYZZ=             -9.7247
 XXYZ=              0.0000 YYXZ=              0.0000 ZZXY=             -0.0130
 N-N= 6.879303711670D+00 E-N=-3.149461190405D+02  KE= 6.872209479502D+01
                          Isotropic Fermi Contact Couplings
        Atom                 a.u.       MegaHertz       Gauss      10(-4) cm-1
     1  H(14)              0.00000       0.00000       0.00000       0.00000
     2  Al(14)             0.00000       0.00000       0.00000       0.00000
 --------------------------------------------------------
       Center         ----  Spin Dipole Couplings  ----
                      3XX-RR        3YY-RR        3ZZ-RR
 --------------------------------------------------------
     1   Atom        0.000000      0.000000      0.000000
     2   Atom        0.000000      0.000000      0.000000
 --------------------------------------------------------
                        XY            XZ            YZ
 --------------------------------------------------------
     1   Atom        0.000000      0.000000      0.000000
     2   Atom        0.000000      0.000000      0.000000
 --------------------------------------------------------


 ---------------------------------------------------------------------------------
              Anisotropic Spin Dipole Couplings in Principal Axis System
 ---------------------------------------------------------------------------------

       Atom             a.u.   MegaHertz   Gauss  10(-4) cm-1        Axes

              Baa     0.0000     0.000     0.000     0.000  1.0000  0.0000  0.0000
     1 H(14)  Bbb     0.0000     0.000     0.000     0.000  0.0000  1.0000  0.0000
              Bcc     0.0000     0.000     0.000     0.000  0.0000  0.0000  1.0000
 
              Baa     0.0000     0.000     0.000     0.000  1.0000  0.0000  0.0000
     2 Al(14) Bbb     0.0000     0.000     0.000     0.000  0.0000  1.0000  0.0000
              Bcc     0.0000     0.000     0.000     0.000  0.0000  0.0000  1.0000
 

 ---------------------------------------------------------------------------------


 **********************************************************************

            Electrostatic Properties Using The SCF Density

 **********************************************************************

       Atomic Center    1 is at   0.000000  0.000000  0.000000
       Atomic Center    2 is at   0.000000  0.000000  1.000000
 -----------------------------------------------------------------

              Electrostatic Properties (Atomic Units)

 -----------------------------------------------------------------
    Center     Electric         -------- Electric Field --------
               Potential          X             Y             Z
 -----------------------------------------------------------------
    1 Atom     -2.215548      0.000000      0.000000     -1.167980
    2 Atom    -22.997843      0.000000      0.000000     -0.274140
 -----------------------------------------------------------------
 -----------------------------------------------------
    Center         ---- Electric Field Gradient ----
                     XX            YY            ZZ
 -----------------------------------------------------
    1 Atom       -4.733021      1.174035     -7.928712
    2 Atom     -542.152278   -541.903213   -539.804780
 -----------------------------------------------------
 -----------------------------------------------------
    Center         ---- Electric Field Gradient ----
                     XY            XZ            YZ
 -----------------------------------------------------
    1 Atom        0.271540      0.000000      0.000000
    2 Atom        0.011449      0.000000      0.000000
 -----------------------------------------------------
 -----------------------------------------------------
    Center         ---- Electric Field Gradient ----
                   ----       Eigenvalues       ----
 -----------------------------------------------------
    1 Atom       -7.928712     -4.745477      1.186491
    2 Atom     -542.152803   -541.902688   -539.804780
 -----------------------------------------------------
 -----------------------------------------------------
    Center         ---- Electric Field Gradient ----
                       ( tensor representation )
                   3XX-RR        3YY-RR        3ZZ-RR
 -----------------------------------------------------
    1 Atom       -0.903788      5.003268     -4.099479
    2 Atom       -0.865521     -0.616456      1.481977
 -----------------------------------------------------
 -----------------------------------------------------
    Center         ---- Electric Field Gradient ----
                       ( tensor representation )
                   ----       Eigenvalues       ----
 -----------------------------------------------------
    1 Atom       -4.099479     -0.916244      5.015724
    2 Atom       -0.866046     -0.615931      1.481977
 -----------------------------------------------------
 1\1\GINC-AVL03\SP\UHF\Gen\N2\GRUDORFF\23-Apr-2019\0\\#UHF Gen scf=tigh
 t Massage guess=indo integral=NoXCTest Pop=Dipole Density=Current NoSy
 mm\\run\\0,1\H,0,0.,0.,0.\Al,0,0.,0.,1.\\Version=ES64L-G09RevD.01\HF=-
 177.782646\S2=0.\S2-1=0.\S2A=0.\RMSD=3.468e-10\Dipole=0.,0.,5.0387314\
 Quadrupole=-2.299135,-3.8027138,6.1018488,-0.0691177,0.,0.\PG=D*H [C*(
 N1.N1)]\\@


 It takes a long time to grow an old friend.
                            -- John Leonard
 Job cpu time:       0 days  0 hours  0 minutes  1.7 seconds.
 File lengths (MBytes):  RWF=      5 Int=      0 D2E=      0 Chk=      1 Scr=      1
 Normal termination of Gaussian 09 at Tue Apr 23 12:51:24 2019.
