 Entering Gaussian System, Link 0=/home/grudorff/opt/gaussian/bin//g09
 Input=run.inp
 Output=run.log
 Initial command:
 /home/grudorff/opt/gaussian/bin/l1.exe "/home/grudorff/mqmc-tmp-XJKORIW5MD/Gau-30212.inp" -scrdir="/home/grudorff/mqmc-tmp-XJKORIW5MD/"
 Entering Link 1 = /home/grudorff/opt/gaussian/bin/l1.exe PID=     30221.
  
 Copyright (c) 1988,1990,1992,1993,1995,1998,2003,2009,2013,
            Gaussian, Inc.  All Rights Reserved.
  
 This is part of the Gaussian(R) 09 program.  It is based on
 the Gaussian(R) 03 system (copyright 2003, Gaussian, Inc.),
 the Gaussian(R) 98 system (copyright 1998, Gaussian, Inc.),
 the Gaussian(R) 94 system (copyright 1995, Gaussian, Inc.),
 the Gaussian 92(TM) system (copyright 1992, Gaussian, Inc.),
 the Gaussian 90(TM) system (copyright 1990, Gaussian, Inc.),
 the Gaussian 88(TM) system (copyright 1988, Gaussian, Inc.),
 the Gaussian 86(TM) system (copyright 1986, Carnegie Mellon
 University), and the Gaussian 82(TM) system (copyright 1983,
 Carnegie Mellon University). Gaussian is a federally registered
 trademark of Gaussian, Inc.
  
 This software contains proprietary and confidential information,
 including trade secrets, belonging to Gaussian, Inc.
  
 This software is provided under written license and may be
 used, copied, transmitted, or stored only in accord with that
 written license.
  
 The following legend is applicable only to US Government
 contracts under FAR:
  
                    RESTRICTED RIGHTS LEGEND
  
 Use, reproduction and disclosure by the US Government is
 subject to restrictions as set forth in subparagraphs (a)
 and (c) of the Commercial Computer Software - Restricted
 Rights clause in FAR 52.227-19.
  
 Gaussian, Inc.
 340 Quinnipiac St., Bldg. 40, Wallingford CT 06492
  
  
 ---------------------------------------------------------------
 Warning -- This program may not be used in any manner that
 competes with the business of Gaussian, Inc. or will provide
 assistance to any competitor of Gaussian, Inc.  The licensee
 of this program is prohibited from giving any competitor of
 Gaussian, Inc. access to this program.  By using this program,
 the user acknowledges that Gaussian, Inc. is engaged in the
 business of creating and licensing software in the field of
 computational chemistry and represents and warrants to the
 licensee that it is not a competitor of Gaussian, Inc. and that
 it will not use this program in any manner prohibited above.
 ---------------------------------------------------------------
  

 Cite this work as:
 Gaussian 09, Revision D.01,
 M. J. Frisch, G. W. Trucks, H. B. Schlegel, G. E. Scuseria, 
 M. A. Robb, J. R. Cheeseman, G. Scalmani, V. Barone, B. Mennucci, 
 G. A. Petersson, H. Nakatsuji, M. Caricato, X. Li, H. P. Hratchian, 
 A. F. Izmaylov, J. Bloino, G. Zheng, J. L. Sonnenberg, M. Hada, 
 M. Ehara, K. Toyota, R. Fukuda, J. Hasegawa, M. Ishida, T. Nakajima, 
 Y. Honda, O. Kitao, H. Nakai, T. Vreven, J. A. Montgomery, Jr., 
 J. E. Peralta, F. Ogliaro, M. Bearpark, J. J. Heyd, E. Brothers, 
 K. N. Kudin, V. N. Staroverov, T. Keith, R. Kobayashi, J. Normand, 
 K. Raghavachari, A. Rendell, J. C. Burant, S. S. Iyengar, J. Tomasi, 
 M. Cossi, N. Rega, J. M. Millam, M. Klene, J. E. Knox, J. B. Cross, 
 V. Bakken, C. Adamo, J. Jaramillo, R. Gomperts, R. E. Stratmann, 
 O. Yazyev, A. J. Austin, R. Cammi, C. Pomelli, J. W. Ochterski, 
 R. L. Martin, K. Morokuma, V. G. Zakrzewski, G. A. Voth, 
 P. Salvador, J. J. Dannenberg, S. Dapprich, A. D. Daniels, 
 O. Farkas, J. B. Foresman, J. V. Ortiz, J. Cioslowski, 
 and D. J. Fox, Gaussian, Inc., Wallingford CT, 2013.
 
 ******************************************
 Gaussian 09:  ES64L-G09RevD.01 24-Apr-2013
                23-Apr-2019 
 ******************************************
 %Chk=run.chk
 ----------------------------------------------------------------------
 #UHF Gen scf=tight Massage guess=indo integral=NoXCTest Pop=Dipole Den
 sity=Current NoSymm
 ----------------------------------------------------------------------
 1/30=1,38=1/1;
 2/12=2,15=1,17=6,18=5,40=1/2;
 3/5=7,10=10,11=2,16=1,25=1,30=1,47=8,116=2/1,2,3;
 4/5=4,11=3/1;
 5/5=2,32=2,38=5/2;
 6/7=2,8=2,9=2,10=2,15=16,22=-1,28=1/1,2;
 99/5=1,9=1/99;
 ---
 run
 ---
 Symbolic Z-matrix:
 Charge =  0 Multiplicity = 1
 7                     0.        0.        0. 
 7                     0.        0.        1. 
 
                          Input orientation:                          
 ---------------------------------------------------------------------
 Center     Atomic      Atomic             Coordinates (Angstroms)
 Number     Number       Type             X           Y           Z
 ---------------------------------------------------------------------
      1          7           0        0.000000    0.000000    0.000000
      2          7           0        0.000000    0.000000    1.000000
 ---------------------------------------------------------------------
 Symmetry turned off by external request.
 Stoichiometry    N2
 Framework group  D*H[C*(N.N)]
 Deg. of freedom     1
 Full point group                 D*H     NOp   8
 Rotational constants (GHZ):      0.0000000     72.1811518     72.1811518
 General basis read from cards:  (5D, 7F)
 The nuclear charge for atom    1 has been changed to Z=  2   2.000000
 The nuclear charge for atom    2 has been changed to Z= 12  12.000000
    10 basis functions,    30 primitive gaussians,    10 cartesian basis functions
     7 alpha electrons        7 beta electrons
       nuclear repulsion energy        12.7002530062 Hartrees.



 Warning!  Mg atom    2 has 12 valence electrons but only   5 basis functions.
 This is less than a minimal basis set!



 NAtoms=    2 NActive=    2 NUniq=    2 SFac= 1.00D+00 NAtFMM=   60 NAOKFM=F Big=F
 Integral buffers will be    131072 words long.
 Raffenetti 2 integral format.
 Two-electron integral symmetry is turned off.
 One-electron integrals computed using PRISM.
 NBasis=    10 RedAO= T EigKep=  1.09D-01  NBF=    10
 NBsUse=    10 1.00D-06 EigRej= -1.00D+00 NBFU=    10
 Projected New-EHT guess.
 Enter ItEHT:  IZDO=4 IZDPar=0 Conv= 1.00D-06 N=    5
 It=   1                  EEH= -19.5769117411     EQH= 0.000000000000E+00 EH= -19.5769117411    
 Initial guess <Sx>= 0.0000 <Sy>= 0.0000 <Sz>= 0.0000 <S**2>= 0.0000 S= 0.0000
 Keep R1 and R2 ints in memory in canonical form, NReq=825412.
 Requested convergence on RMS density matrix=1.00D-08 within 128 cycles.
 Requested convergence on MAX density matrix=1.00D-06.
 Requested convergence on             energy=1.00D-06.
 No special actions if energy rises.
 SCF Done:  E(UHF) =  -157.654056202     A.U. after    8 cycles
            NFock=  8  Conv=0.22D-08     -V/T= 3.2881
 <Sx>= 0.0000 <Sy>= 0.0000 <Sz>= 0.0000 <S**2>= 0.0000 S= 0.0000
 <L.S>= 0.000000000000E+00
 Annihilation of the first spin contaminant:
 S**2 before annihilation     0.0000,   after     0.0000

 **********************************************************************

            Population analysis using the SCF density.

 **********************************************************************

 Alpha  occ. eigenvalues --  -44.54279  -3.15204  -2.59355  -2.33547  -2.31881
 Alpha  occ. eigenvalues --   -0.43850   0.98775
 Alpha virt. eigenvalues --    1.55589   2.20689  13.13110
  Beta  occ. eigenvalues --  -44.54279  -3.15204  -2.59355  -2.33547  -2.31881
  Beta  occ. eigenvalues --   -0.43850   0.98775
  Beta virt. eigenvalues --    1.55589   2.20689  13.13110
          Condensed to atoms (all electrons):
               1          2
     1  He   7.862108  -4.181917
     2  Mg  -4.181917  14.501726
          Atomic-Atomic Spin Densities.
               1          2
     1  He   0.000000   0.000000
     2  Mg   0.000000   0.000000
 Mulliken charges and spin densities:
               1          2
     1  He  -1.680191   0.000000
     2  Mg   1.680191   0.000000
 Sum of Mulliken charges =   0.00000   0.00000
 Mulliken charges and spin densities with hydrogens summed into heavy atoms:
               1          2
     1  He  -1.680191   0.000000
     2  Mg   1.680191   0.000000
 Electronic spatial extent (au):  <R**2>=             60.8504
 Charge=              0.0000 electrons
 Dipole moment (field-independent basis, Debye):
    X=              0.0000    Y=              0.0000    Z=              8.1430  Tot=              8.1430
 Quadrupole moment (field-independent basis, Debye-Ang):
   XX=            -11.5261   YY=             -9.6944   ZZ=             -2.9869
   XY=              0.4304   XZ=              0.0000   YZ=              0.0000
 Traceless Quadrupole moment (field-independent basis, Debye-Ang):
   XX=             -3.4570   YY=             -1.6253   ZZ=              5.0823
   XY=              0.4304   XZ=              0.0000   YZ=              0.0000
 Octapole moment (field-independent basis, Debye-Ang**2):
  XXX=              0.0000  YYY=              0.0000  ZZZ=            -15.8838  XYY=              0.0000
  XXY=              0.0000  XXZ=             -7.1016  XZZ=              0.0000  YZZ=              0.0000
  YYZ=             -7.1991  XYZ=             -0.0229
 Hexadecapole moment (field-independent basis, Debye-Ang**3):
 XXXX=             -7.2072 YYYY=             -5.6433 ZZZZ=            -45.2700 XXXY=              0.1838
 XXXZ=              0.0000 YYYX=              0.1838 YYYZ=              0.0000 ZZZX=              0.0000
 ZZZY=              0.0000 XXYY=             -2.1417 XXZZ=             -9.6919 YYZZ=             -9.4298
 XXYZ=              0.0000 YYXZ=              0.0000 ZZXY=              0.0616
 N-N= 1.270025300616D+01 E-N=-3.008221896771D+02  KE= 6.890038834666D+01
                          Isotropic Fermi Contact Couplings
        Atom                 a.u.       MegaHertz       Gauss      10(-4) cm-1
     1  He(14)             0.00000       0.00000       0.00000       0.00000
     2  Mg(14)             0.00000       0.00000       0.00000       0.00000
 --------------------------------------------------------
       Center         ----  Spin Dipole Couplings  ----
                      3XX-RR        3YY-RR        3ZZ-RR
 --------------------------------------------------------
     1   Atom        0.000000      0.000000      0.000000
     2   Atom        0.000000      0.000000      0.000000
 --------------------------------------------------------
                        XY            XZ            YZ
 --------------------------------------------------------
     1   Atom        0.000000      0.000000      0.000000
     2   Atom        0.000000      0.000000      0.000000
 --------------------------------------------------------


 ---------------------------------------------------------------------------------
              Anisotropic Spin Dipole Couplings in Principal Axis System
 ---------------------------------------------------------------------------------

       Atom             a.u.   MegaHertz   Gauss  10(-4) cm-1        Axes

              Baa     0.0000     0.000     0.000     0.000  1.0000  0.0000  0.0000
     1 He(14) Bbb     0.0000     0.000     0.000     0.000  0.0000  1.0000  0.0000
              Bcc     0.0000     0.000     0.000     0.000  0.0000  0.0000  1.0000
 
              Baa     0.0000     0.000     0.000     0.000  1.0000  0.0000  0.0000
     2 Mg(14) Bbb     0.0000     0.000     0.000     0.000  0.0000  1.0000  0.0000
              Bcc     0.0000     0.000     0.000     0.000  0.0000  0.0000  1.0000
 

 ---------------------------------------------------------------------------------


 **********************************************************************

            Electrostatic Properties Using The SCF Density

 **********************************************************************

       Atomic Center    1 is at   0.000000  0.000000  0.000000
       Atomic Center    2 is at   0.000000  0.000000  1.000000
 -----------------------------------------------------------------

              Electrostatic Properties (Atomic Units)

 -----------------------------------------------------------------
    Center     Electric         -------- Electric Field --------
               Potential          X             Y             Z
 -----------------------------------------------------------------
    1 Atom     -3.021749      0.000000      0.000000     -0.864458
    2 Atom    -22.448182      0.000000      0.000000     -0.008381
 -----------------------------------------------------------------
 -----------------------------------------------------
    Center         ---- Electric Field Gradient ----
                     XX            YY            ZZ
 -----------------------------------------------------
    1 Atom       -7.486472    -12.861439    -15.906733
    2 Atom     -541.659734   -541.912520   -540.077851
 -----------------------------------------------------
 -----------------------------------------------------
    Center         ---- Electric Field Gradient ----
                     XY            XZ            YZ
 -----------------------------------------------------
    1 Atom       -1.263027      0.000000      0.000000
    2 Atom       -0.059401      0.000000      0.000000
 -----------------------------------------------------
 -----------------------------------------------------
    Center         ---- Electric Field Gradient ----
                   ----       Eigenvalues       ----
 -----------------------------------------------------
    1 Atom      -15.906733    -13.143434     -7.204477
    2 Atom     -541.925783   -541.646471   -540.077851
 -----------------------------------------------------
 -----------------------------------------------------
    Center         ---- Electric Field Gradient ----
                       ( tensor representation )
                   3XX-RR        3YY-RR        3ZZ-RR
 -----------------------------------------------------
    1 Atom        4.598409     -0.776558     -3.821851
    2 Atom       -0.443032     -0.695819      1.138851
 -----------------------------------------------------
 -----------------------------------------------------
    Center         ---- Electric Field Gradient ----
                       ( tensor representation )
                   ----       Eigenvalues       ----
 -----------------------------------------------------
    1 Atom       -3.821851     -1.058553      4.880404
    2 Atom       -0.709081     -0.429770      1.138851
 -----------------------------------------------------
 1\1\GINC-AVL03\SP\UHF\Gen\N2\GRUDORFF\23-Apr-2019\0\\#UHF Gen scf=tigh
 t Massage guess=indo integral=NoXCTest Pop=Dipole Density=Current NoSy
 mm\\run\\0,1\He,0,0.,0.,0.\Mg,0,0.,0.,1.\\Version=ES64L-G09RevD.01\HF=
 -157.6540562\S2=0.\S2-1=0.\S2A=0.\RMSD=2.151e-09\Dipole=0.,0.,3.203716
 9\Quadrupole=-2.5701931,-1.2083497,3.7785428,0.3200103,0.,0.\PG=D*H [C
 *(N1.N1)]\\@


 NOT WHAT WE DID SHALL BE THE TEST
 WHEN ACT AND WILL ARE DONE,
 BUT WHAT OUR LORD INFERS WE WOULD-
 HAD WE DIVINER BEEN.
           EMILY DICKINSON  POEMS NO. CLXXV
 Job cpu time:       0 days  0 hours  0 minutes  1.7 seconds.
 File lengths (MBytes):  RWF=      5 Int=      0 D2E=      0 Chk=      1 Scr=      1
 Normal termination of Gaussian 09 at Tue Apr 23 12:51:15 2019.
