run                                                                     
SP        UHF                                                         Gen                 
Number of atoms                            I                2
Info1-9                                    I   N=           9
          32          32           0           0           0         110
           1           1           2
Charge                                     I                0
Multiplicity                               I                1
Number of electrons                        I               14
Number of alpha electrons                  I                7
Number of beta electrons                   I                7
Number of basis functions                  I               10
Number of independent functions            I               10
Number of point charges in /Mol/           I                0
Number of translation vectors              I                0
Atomic numbers                             I   N=           2
           7           7
Nuclear charges                            R   N=           2
  7.05000000E+00  7.05000000E+00
Current cartesian coordinates              R   N=           6
  0.00000000E+00  0.00000000E+00  0.00000000E+00  0.00000000E+00  0.00000000E+00
  1.88972613E+00
Force Field                                I                0
Int Atom Types                             I   N=           2
           0           0
MM charges                                 R   N=           2
  0.00000000E+00  0.00000000E+00
Integer atomic weights                     I   N=           2
          14          14
Real atomic weights                        R   N=           2
  1.40030740E+01  1.40030740E+01
Atom fragment info                         I   N=           2
           0           0
Atom residue num                           I   N=           2
           0           0
Nuclear spins                              I   N=           2
           2           2
Nuclear ZEff                               R   N=           2
 -4.55000000E+00 -4.55000000E+00
Nuclear ZNuc                               R   N=           2
  7.00000000E+00  7.00000000E+00
Nuclear QMom                               R   N=           2
  2.04400000E+00  2.04400000E+00
Nuclear GFac                               R   N=           2
  4.03761000E-01  4.03761000E-01
MicOpt                                     I   N=           2
          -1          -1
Number of contracted shells                I                4
Number of primitive shells                 I               12
Pure/Cartesian d shells                    I                0
Pure/Cartesian f shells                    I                0
Highest angular momentum                   I                1
Largest degree of contraction              I                3
Shell types                                I   N=           4
           0          -1           0          -1
Number of primitives per shell             I   N=           4
           3           3           3           3
Shell to atom map                          I   N=           4
           1           1           2           2
Primitive exponents                        R   N=          12
  9.91061690E+01  1.80523124E+01  4.88566024E+00  3.78045588E+00  8.78496645E-01
  2.85714374E-01  9.91061690E+01  1.80523124E+01  4.88566024E+00  3.78045588E+00
  8.78496645E-01  2.85714374E-01
Contraction coefficients                   R   N=          12
  1.54328967E-01  5.35328142E-01  4.44634542E-01 -9.99672292E-02  3.99512826E-01
  7.00115469E-01  1.54328967E-01  5.35328142E-01  4.44634542E-01 -9.99672292E-02
  3.99512826E-01  7.00115469E-01
P(S=P) Contraction coefficients            R   N=          12
  0.00000000E+00  0.00000000E+00  0.00000000E+00  1.55916275E-01  6.07683719E-01
  3.91957393E-01  0.00000000E+00  0.00000000E+00  0.00000000E+00  1.55916275E-01
  6.07683719E-01  3.91957393E-01
Coordinates of each shell                  R   N=          12
  0.00000000E+00  0.00000000E+00  0.00000000E+00  0.00000000E+00  0.00000000E+00
  0.00000000E+00  0.00000000E+00  0.00000000E+00  1.88972613E+00  0.00000000E+00
  0.00000000E+00  1.88972613E+00
Constraint Structure                       R   N=           6
  0.00000000E+00  0.00000000E+00  0.00000000E+00  0.00000000E+00  0.00000000E+00
  1.88972613E+00
Num ILSW                                   I              100
ILSW                                       I   N=         100
           1           0           0           0           2           0
           0           0           0           0           0          -1
           0           0           0           0           0           0
           0           0           1           0           0           0
           1           1           0           0           0           8
           0           0      100000           0          -1           0
           0           0           0           0           0           0
           0           0           0           1           0           0
           0           0           1           0           0           0
           0           0           4          41           0           0
           0           0           0           0           0           0
           0           0           0           0           0           0
           0           0           0           0           0           0
           0           0           0           0           0           0
           0           0           0           0           0           0
           0           0           0           0           0           0
           0           0           0           0
Num RLSW                                   I               41
RLSW                                       R   N=          41
  1.00000000E+00  1.00000000E+00  1.00000000E+00  1.00000000E+00  1.00000000E+00
  0.00000000E+00  0.00000000E+00  1.00000000E+00  0.00000000E+00  0.00000000E+00
  0.00000000E+00  0.00000000E+00  1.00000000E+00  0.00000000E+00  0.00000000E+00
  0.00000000E+00  0.00000000E+00  1.00000000E+00  0.00000000E+00  0.00000000E+00
  0.00000000E+00  0.00000000E+00  1.00000000E+00  0.00000000E+00  0.00000000E+00
  0.00000000E+00  0.00000000E+00  1.00000000E+00  0.00000000E+00  0.00000000E+00
  0.00000000E+00  0.00000000E+00  1.00000000E+00  0.00000000E+00  0.00000000E+00
  0.00000000E+00  0.00000000E+00  0.00000000E+00  1.00000000E+00  1.00000000E+00
  0.00000000E+00
MxBond                                     I                1
NBond                                      I   N=           2
           1           1
IBond                                      I   N=           2
           2           1
RBond                                      R   N=           2
  3.00000000E+00  3.00000000E+00
Virial Ratio                               R      2.024791970422788E+00
SCF Energy                                 R     -1.092106983949741E+02
Total Energy                               R     -1.092106983949741E+02
S**2                                       R     -1.065814103640150E-14
S**2 after annihilation                    R     -1.518785097687210E-13
RMS Density                                R      5.076816948545706E-14
External E-field                           R   N=          35
  0.00000000E+00  0.00000000E+00  0.00000000E+00  0.00000000E+00  0.00000000E+00
  0.00000000E+00  0.00000000E+00  0.00000000E+00  0.00000000E+00  0.00000000E+00
  0.00000000E+00  0.00000000E+00  0.00000000E+00  0.00000000E+00  0.00000000E+00
  0.00000000E+00  0.00000000E+00  0.00000000E+00  0.00000000E+00  0.00000000E+00
  0.00000000E+00  0.00000000E+00  0.00000000E+00  0.00000000E+00  0.00000000E+00
  0.00000000E+00  0.00000000E+00  0.00000000E+00  0.00000000E+00  0.00000000E+00
  0.00000000E+00  0.00000000E+00  0.00000000E+00  0.00000000E+00  0.00000000E+00
IOpCl                                      I                1
IROHF                                      I                0
Alpha Orbital Energies                     R   N=          10
 -1.59127229E+01 -1.59079468E+01 -1.62782684E+00 -7.82076783E-01 -7.16493453E-01
 -7.16493453E-01 -6.35075388E-01  2.54400465E-01  2.54400465E-01  1.28980424E+00
Beta Orbital Energies                      R   N=          10
 -1.59127229E+01 -1.59079468E+01 -1.62782684E+00 -7.82076783E-01 -7.16493453E-01
 -7.16493453E-01 -6.35075388E-01  2.54400465E-01  2.54400465E-01  1.28980424E+00
Alpha MO coefficients                      R   N=         100
  7.03314152E-01  1.08884601E-02  3.83384490E-16  4.70063052E-16  3.22564476E-03
  7.03314152E-01  1.08884601E-02  4.50431362E-16  4.83479953E-16 -3.22564476E-03
  7.03741399E-01  2.57581767E-02  8.69578739E-16  2.28856703E-16  9.82991249E-03
 -7.03741399E-01 -2.57581767E-02 -8.44130389E-16 -3.84523469E-16  9.82991249E-03
 -1.81747109E-01  4.56950173E-01  3.79217670E-16 -2.97673893E-16  2.71408961E-01
 -1.81747109E-01  4.56950173E-01 -6.19831813E-16 -7.06148807E-16 -2.71408961E-01
 -1.65882121E-01  7.32974448E-01 -7.25574369E-16 -3.66216632E-15 -2.90024117E-01
  1.65882121E-01 -7.32974448E-01  1.93577358E-16 -2.55595182E-15 -2.90024117E-01
 -6.77415583E-16  3.48387819E-15  5.88631433E-01  1.65209202E-01 -2.43705079E-15
 -7.67705416E-17  3.65663340E-16  5.88631433E-01  1.65209202E-01  2.06835376E-15
 -1.50633339E-15  7.33335867E-15 -1.65209202E-01  5.88631433E-01 -6.60671141E-15
 -4.18393798E-17  8.48741255E-16 -1.65209202E-01  5.88631433E-01  3.91370055E-15
  6.53748418E-02 -4.30617046E-01  9.76399017E-16  5.93310833E-15  6.03944178E-01
  6.53748418E-02 -4.30617046E-01  1.01800544E-15  5.51618669E-15 -6.03944178E-01
  3.24164178E-16 -8.69835805E-17 -5.89127583E-01  6.38633331E-01  5.50088693E-17
 -2.96594502E-16  1.00403696E-16  5.89127583E-01 -6.38633331E-01  1.79821882E-16
 -1.43478133E-16  5.12114626E-17  6.38633331E-01  5.89127583E-01 -2.73884703E-17
  5.58022130E-17  1.24707907E-16 -6.38633331E-01 -5.89127583E-01  4.16777631E-17
 -1.21532919E-01  1.58067895E+00  4.61914361E-16 -4.69850844E-17  1.38574189E+00
  1.21532919E-01 -1.58067895E+00 -1.01560910E-16  3.18736559E-17  1.38574189E+00
Beta MO coefficients                       R   N=         100
  7.03314152E-01  1.08884601E-02  3.83384490E-16  4.70063052E-16  3.22564476E-03
  7.03314152E-01  1.08884601E-02  4.50431362E-16  4.83479953E-16 -3.22564476E-03
  7.03741399E-01  2.57581767E-02  8.69578739E-16  2.28856703E-16  9.82991249E-03
 -7.03741399E-01 -2.57581767E-02 -8.44130389E-16 -3.84523469E-16  9.82991249E-03
 -1.81747109E-01  4.56950173E-01  3.79217670E-16 -2.97673893E-16  2.71408961E-01
 -1.81747109E-01  4.56950173E-01 -6.19831813E-16 -7.06148807E-16 -2.71408961E-01
 -1.65882121E-01  7.32974448E-01 -7.25574369E-16 -3.66216632E-15 -2.90024117E-01
  1.65882121E-01 -7.32974448E-01  1.93577358E-16 -2.55595182E-15 -2.90024117E-01
 -6.77415583E-16  3.48387819E-15  5.88631433E-01  1.65209202E-01 -2.43705079E-15
 -7.67705416E-17  3.65663340E-16  5.88631433E-01  1.65209202E-01  2.06835376E-15
 -1.50633339E-15  7.33335867E-15 -1.65209202E-01  5.88631433E-01 -6.60671141E-15
 -4.18393798E-17  8.48741255E-16 -1.65209202E-01  5.88631433E-01  3.91370055E-15
  6.53748418E-02 -4.30617046E-01  9.76399017E-16  5.93310833E-15  6.03944178E-01
  6.53748418E-02 -4.30617046E-01  1.01800544E-15  5.51618669E-15 -6.03944178E-01
  3.24164178E-16 -8.69835805E-17 -5.89127583E-01  6.38633331E-01  5.50088693E-17
 -2.96594502E-16  1.00403696E-16  5.89127583E-01 -6.38633331E-01  1.79821882E-16
 -1.43478133E-16  5.12114626E-17  6.38633331E-01  5.89127583E-01 -2.73884703E-17
  5.58022130E-17  1.24707907E-16 -6.38633331E-01 -5.89127583E-01  4.16777631E-17
 -1.21532919E-01  1.58067895E+00  4.61914361E-16 -4.69850844E-17  1.38574189E+00
  1.21532919E-01 -1.58067895E+00 -1.01560910E-16  3.18736559E-17  1.38574189E+00
Total SCF Density                          R   N=          55
  2.10945102E+00 -4.14006293E-01  1.86453617E+00  1.69396072E-15  1.73514302E-16
  7.47562088E-01  1.08506554E-15 -9.43933413E-16 -5.21804822E-15  7.47562088E-01
  9.49022690E-02 -6.96680461E-01  1.13959402E-15  5.53632210E-16  1.04526483E+00
  1.83756875E-02 -1.65251425E-04 -1.01209145E-15 -6.65512822E-17 -1.25207859E-01
  2.10945102E+00 -1.65251425E-04 -2.87123932E-01  6.82907533E-16  1.10516936E-15
  1.52627805E-01 -4.14006293E-01  1.86453617E+00 -5.60098312E-16  4.85255256E-16
  7.47562088E-01 -5.13478149E-15  8.11369454E-17  2.16776511E-15 -1.52364234E-15
  7.47562088E-01 -3.24204251E-17  6.32175337E-16  6.85562718E-15  7.47562088E-01
 -8.25320238E-16  1.27661166E-15 -4.98831516E-16  6.91113833E-15  7.47562088E-01
  1.25207859E-01 -1.52627805E-01  1.92100809E-16  4.11626603E-16 -7.08422367E-01
 -9.49022690E-02  6.96680461E-01  1.16870766E-16  4.83145625E-16  1.04526483E+00
Spin SCF Density                           R   N=          55
  0.00000000E+00  0.00000000E+00  0.00000000E+00  0.00000000E+00  0.00000000E+00
  0.00000000E+00  0.00000000E+00  0.00000000E+00  0.00000000E+00  0.00000000E+00
  0.00000000E+00  0.00000000E+00  0.00000000E+00  0.00000000E+00  0.00000000E+00
  0.00000000E+00  0.00000000E+00  0.00000000E+00  0.00000000E+00  0.00000000E+00
  0.00000000E+00  0.00000000E+00  0.00000000E+00  0.00000000E+00  0.00000000E+00
  0.00000000E+00  0.00000000E+00  0.00000000E+00  0.00000000E+00  0.00000000E+00
  0.00000000E+00  0.00000000E+00  0.00000000E+00  0.00000000E+00  0.00000000E+00
  0.00000000E+00  0.00000000E+00  0.00000000E+00  0.00000000E+00  0.00000000E+00
  0.00000000E+00  0.00000000E+00  0.00000000E+00  0.00000000E+00  0.00000000E+00
  0.00000000E+00  0.00000000E+00  0.00000000E+00  0.00000000E+00  0.00000000E+00
  0.00000000E+00  0.00000000E+00  0.00000000E+00  0.00000000E+00  0.00000000E+00
Mulliken Charges                           R   N=           2
  5.00000000E-02  5.00000000E-02
Cartesian Gradient                         R   N=           6
  0.00000000E+00  0.00000000E+00  0.00000000E+00  0.00000000E+00  0.00000000E+00
  0.00000000E+00
Dipole Moment                              R   N=           3
  8.36840344E-16  1.46394354E-15  9.44863066E-02
Quadrupole Moment                          R   N=           6
  5.93484437E-01  5.93484437E-01 -1.18696887E+00 -1.92327241E-15  2.02623196E-15
  1.49518698E-16
Anisotropic Hyperfine tensors              R   N=          12
  0.00000000E+00  0.00000000E+00  0.00000000E+00  0.00000000E+00  0.00000000E+00
  0.00000000E+00  0.00000000E+00  0.00000000E+00  0.00000000E+00  0.00000000E+00
  0.00000000E+00  0.00000000E+00
Isotropic Hyperfine splittings             R   N=           2
  0.00000000E+00  0.00000000E+00
QEq coupling tensors                       R   N=          12
 -1.20030438E-01 -1.35140235E-14 -1.20030438E-01  2.80986743E-15  4.15732624E-16
  2.40060877E-01 -1.20030438E-01  1.91019836E-14 -1.20030438E-01 -1.37316060E-16
 -2.79876460E-16  2.40060877E-01
