run                                                                     
SP        UHF                                                         Gen                 
Number of atoms                            I                2
Info1-9                                    I   N=           9
          32          32           0           0           0         110
           1           1           2
Charge                                     I                0
Multiplicity                               I                1
Number of electrons                        I               14
Number of alpha electrons                  I                7
Number of beta electrons                   I                7
Number of basis functions                  I               10
Number of independent functions            I               10
Number of point charges in /Mol/           I                0
Number of translation vectors              I                0
Atomic numbers                             I   N=           2
           9           5
Nuclear charges                            R   N=           2
  9.00000000E+00  5.00000000E+00
Current cartesian coordinates              R   N=           6
  0.00000000E+00  0.00000000E+00  0.00000000E+00  0.00000000E+00  0.00000000E+00
  1.88972613E+00
Force Field                                I                0
Int Atom Types                             I   N=           2
           0           0
MM charges                                 R   N=           2
  0.00000000E+00  0.00000000E+00
Integer atomic weights                     I   N=           2
          14          14
Real atomic weights                        R   N=           2
  1.40030740E+01  1.40030740E+01
Atom fragment info                         I   N=           2
           0           0
Atom residue num                           I   N=           2
           0           0
Nuclear spins                              I   N=           2
           2           2
Nuclear ZEff                               R   N=           2
 -6.75000000E+00 -2.75000000E+00
Nuclear ZNuc                               R   N=           2
  9.00000000E+00  5.00000000E+00
Nuclear QMom                               R   N=           2
  2.04400000E+00  2.04400000E+00
Nuclear GFac                               R   N=           2
  4.03761000E-01  4.03761000E-01
MicOpt                                     I   N=           2
          -1          -1
Number of contracted shells                I                4
Number of primitive shells                 I               12
Pure/Cartesian d shells                    I                0
Pure/Cartesian f shells                    I                0
Highest angular momentum                   I                1
Largest degree of contraction              I                3
Shell types                                I   N=           4
           0          -1           0          -1
Number of primitives per shell             I   N=           4
           3           3           3           3
Shell to atom map                          I   N=           4
           1           1           2           2
Primitive exponents                        R   N=          12
  9.91061690E+01  1.80523124E+01  4.88566024E+00  3.78045588E+00  8.78496645E-01
  2.85714374E-01  9.91061690E+01  1.80523124E+01  4.88566024E+00  3.78045588E+00
  8.78496645E-01  2.85714374E-01
Contraction coefficients                   R   N=          12
  1.54328967E-01  5.35328142E-01  4.44634542E-01 -9.99672292E-02  3.99512826E-01
  7.00115469E-01  1.54328967E-01  5.35328142E-01  4.44634542E-01 -9.99672292E-02
  3.99512826E-01  7.00115469E-01
P(S=P) Contraction coefficients            R   N=          12
  0.00000000E+00  0.00000000E+00  0.00000000E+00  1.55916275E-01  6.07683719E-01
  3.91957393E-01  0.00000000E+00  0.00000000E+00  0.00000000E+00  1.55916275E-01
  6.07683719E-01  3.91957393E-01
Coordinates of each shell                  R   N=          12
  0.00000000E+00  0.00000000E+00  0.00000000E+00  0.00000000E+00  0.00000000E+00
  0.00000000E+00  0.00000000E+00  0.00000000E+00  1.88972613E+00  0.00000000E+00
  0.00000000E+00  1.88972613E+00
Constraint Structure                       R   N=           6
  0.00000000E+00  0.00000000E+00  0.00000000E+00  0.00000000E+00  0.00000000E+00
  1.88972613E+00
Num ILSW                                   I              100
ILSW                                       I   N=         100
           1           0           0           0           2           0
           0           0           0           0           0          -1
           0           0           0           0           0           0
           0           0           1           0           0           0
           1           1           0           0           0           8
           0           0      100000           0          -1           0
           0           0           0           0           0           0
           0           0           0           1           0           0
           0           0           1           0           0           0
           0           0           4          41           0           0
           0           0           0           0           0           0
           0           0           0           0           0           0
           0           0           0           0           0           0
           0           0           0           0           0           0
           0           0           0           0           0           0
           0           0           0           0           0           0
           0           0           0           0
Num RLSW                                   I               41
RLSW                                       R   N=          41
  1.00000000E+00  1.00000000E+00  1.00000000E+00  1.00000000E+00  1.00000000E+00
  0.00000000E+00  0.00000000E+00  1.00000000E+00  0.00000000E+00  0.00000000E+00
  0.00000000E+00  0.00000000E+00  1.00000000E+00  0.00000000E+00  0.00000000E+00
  0.00000000E+00  0.00000000E+00  1.00000000E+00  0.00000000E+00  0.00000000E+00
  0.00000000E+00  0.00000000E+00  1.00000000E+00  0.00000000E+00  0.00000000E+00
  0.00000000E+00  0.00000000E+00  1.00000000E+00  0.00000000E+00  0.00000000E+00
  0.00000000E+00  0.00000000E+00  1.00000000E+00  0.00000000E+00  0.00000000E+00
  0.00000000E+00  0.00000000E+00  0.00000000E+00  1.00000000E+00  1.00000000E+00
  0.00000000E+00
MxBond                                     I                1
NBond                                      I   N=           2
           1           1
IBond                                      I   N=           2
           2           1
RBond                                      R   N=           2
  3.00000000E+00  3.00000000E+00
Virial Ratio                               R      2.112241533321476E+00
SCF Energy                                 R     -1.132548224396048E+02
Total Energy                               R     -1.132548224396048E+02
S**2                                       R     -2.842170943040401E-14
S**2 after annihilation                    R      1.776356839400216E-15
RMS Density                                R      3.267553517338913E-09
External E-field                           R   N=          35
  0.00000000E+00  0.00000000E+00  0.00000000E+00  0.00000000E+00  0.00000000E+00
  0.00000000E+00  0.00000000E+00  0.00000000E+00  0.00000000E+00  0.00000000E+00
  0.00000000E+00  0.00000000E+00  0.00000000E+00  0.00000000E+00  0.00000000E+00
  0.00000000E+00  0.00000000E+00  0.00000000E+00  0.00000000E+00  0.00000000E+00
  0.00000000E+00  0.00000000E+00  0.00000000E+00  0.00000000E+00  0.00000000E+00
  0.00000000E+00  0.00000000E+00  0.00000000E+00  0.00000000E+00  0.00000000E+00
  0.00000000E+00  0.00000000E+00  0.00000000E+00  0.00000000E+00  0.00000000E+00
IOpCl                                      I                1
IROHF                                      I                0
Alpha Orbital Energies                     R   N=          10
 -2.64094052E+01 -5.68297900E+00 -1.79984866E+00 -9.73422937E-01 -9.64801298E-01
 -9.64801298E-01  1.97704334E-01  6.25899031E-01  6.25899031E-01  1.92855942E+00
Beta Orbital Energies                      R   N=          10
 -2.64094052E+01 -5.68297900E+00 -1.79984866E+00 -9.73422937E-01 -9.64801298E-01
 -9.64801298E-01  1.97704334E-01  6.25899031E-01  6.25899031E-01  1.92855942E+00
Alpha MO coefficients                      R   N=         100
  1.01302960E+00 -8.48600536E-02  8.72297034E-17  3.11197109E-16 -2.61837238E-02
 -8.34301677E-04  4.17446741E-02  7.80560960E-17 -6.51124971E-16 -2.39467012E-02
 -3.73840655E-03 -1.88547740E-01  1.43098402E-16  5.20823997E-16 -8.72874799E-02
  8.44042725E-01  4.84516153E-01  2.75694623E-16 -7.90084894E-17 -1.47136780E-01
 -1.92552701E-01  1.14078496E+00  2.06229882E-15 -3.99292334E-16  4.50742704E-01
 -1.48616859E-01 -3.56865801E-01  6.20960560E-16 -7.99159377E-17  1.30998040E-02
  5.16277342E-02 -2.09712905E-01  1.20934676E-13 -3.96932536E-14  1.04204049E+00
 -9.85920755E-02 -2.93671722E-01  9.99531600E-15 -3.49544183E-15 -2.73248142E-02
 -3.40389591E-15  1.35374724E-14  7.55411697E-01  6.06242317E-01 -7.50544190E-14
  7.15912343E-15  2.12263882E-14  6.53397900E-02  5.24372946E-02  1.66989078E-15
  5.55065447E-15 -2.23160753E-14 -6.06242317E-01  7.55411697E-01  1.14230890E-13
 -1.08938586E-14 -3.25498899E-14 -5.24372946E-02  6.53397900E-02 -3.37882311E-15
 -2.56588232E-03  3.12680999E-01  1.90782110E-16  5.57985692E-15  2.87421142E-01
 -3.63016398E-01  4.23618942E-01 -4.13063577E-16 -1.27778987E-14  8.80616875E-01
 -3.49244956E-16  2.10723126E-15 -2.89985816E-01 -3.26246120E-01  2.52198569E-15
 -4.07370102E-15  4.75460368E-15  7.03611032E-01  7.91591714E-01  7.72828276E-15
 -3.07868076E-17 -1.97159330E-15 -3.26246120E-01  2.89985816E-01 -1.56957378E-15
  3.08000030E-15 -4.22826608E-15  7.91591714E-01 -7.03611032E-01 -6.31377949E-15
  5.91968776E-02 -1.39460507E+00 -1.85381957E-19  2.92150019E-16 -1.03100924E+00
 -4.39884840E-01  1.67369836E+00  2.06081640E-17 -8.32971740E-16 -1.28229716E+00
Beta MO coefficients                       R   N=         100
  1.01302960E+00 -8.48600536E-02  8.72297034E-17  3.11197109E-16 -2.61837238E-02
 -8.34301677E-04  4.17446741E-02  7.80560960E-17 -6.51124971E-16 -2.39467012E-02
 -3.73840655E-03 -1.88547740E-01  1.43098402E-16  5.20823997E-16 -8.72874799E-02
  8.44042725E-01  4.84516153E-01  2.75694623E-16 -7.90084894E-17 -1.47136780E-01
 -1.92552701E-01  1.14078496E+00  2.06229882E-15 -3.99292334E-16  4.50742704E-01
 -1.48616859E-01 -3.56865801E-01  6.20960560E-16 -7.99159377E-17  1.30998040E-02
  5.16277342E-02 -2.09712905E-01  1.20934676E-13 -3.96932536E-14  1.04204049E+00
 -9.85920755E-02 -2.93671722E-01  9.99531600E-15 -3.49544183E-15 -2.73248142E-02
 -3.40389591E-15  1.35374724E-14  7.55411697E-01  6.06242317E-01 -7.50544190E-14
  7.15912343E-15  2.12263882E-14  6.53397900E-02  5.24372946E-02  1.66989078E-15
  5.55065447E-15 -2.23160753E-14 -6.06242317E-01  7.55411697E-01  1.14230890E-13
 -1.08938586E-14 -3.25498899E-14 -5.24372946E-02  6.53397900E-02 -3.37882311E-15
 -2.56588232E-03  3.12680999E-01  1.90782110E-16  5.57985692E-15  2.87421142E-01
 -3.63016398E-01  4.23618942E-01 -4.13063577E-16 -1.27778987E-14  8.80616875E-01
 -3.49244956E-16  2.10723126E-15 -2.89985816E-01 -3.26246120E-01  2.52198569E-15
 -4.07370102E-15  4.75460368E-15  7.03611032E-01  7.91591714E-01  7.72828276E-15
 -3.07868076E-17 -1.97159330E-15 -3.26246120E-01  2.89985816E-01 -1.56957378E-15
  3.08000030E-15 -4.22826608E-15  7.91591714E-01 -7.03611032E-01 -6.31377949E-15
  5.91968776E-02 -1.39460507E+00 -1.85381957E-19  2.92150019E-16 -1.03100924E+00
 -4.39884840E-01  1.67369836E+00  2.06081640E-17 -8.32971740E-16 -1.28229716E+00
Total SCF Density                          R   N=          55
  2.13198298E+00 -6.33102815E-01  2.97178143E+00 -5.12099982E-18  1.54332422E-15
  1.87635316E+00  9.12086429E-16  1.67590391E-15  1.11022302E-15  1.87635316E+00
 -1.19859191E-01  8.08444198E-01  2.07974017E-15  1.59677862E-15  2.75986593E+00
  4.09148047E-02 -8.42887454E-01 -3.31676179E-16 -3.00528867E-15 -6.95432009E-01
  1.75199418E+00  1.85888368E-01 -6.15919352E-01 -6.58964396E-16  5.41623725E-15
 -7.77001330E-01  6.74253726E-01  1.25909562E+00 -7.58018259E-17  9.58406716E-16
  1.62296297E-01  9.61730695E-15 -6.86826186E-16  6.87715416E-16 -2.02659932E-16
  1.40379160E-02 -1.21482625E-15 -8.06328330E-15 -1.15185639E-14  1.62296297E-01
 -7.59786933E-15  9.18509163E-15 -1.08742775E-14 -1.72604986E-16  1.40379160E-02
 -5.98026803E-02  6.51602030E-01  3.54401534E-16  8.73793548E-15  4.88018397E-01
 -8.86201915E-01  6.08211697E-01 -7.69767594E-16 -2.25279150E-14  1.59725401E+00
Spin SCF Density                           R   N=          55
  0.00000000E+00  0.00000000E+00  0.00000000E+00  0.00000000E+00  0.00000000E+00
  0.00000000E+00  0.00000000E+00  0.00000000E+00  0.00000000E+00  0.00000000E+00
  0.00000000E+00  0.00000000E+00  0.00000000E+00  0.00000000E+00  0.00000000E+00
  0.00000000E+00  0.00000000E+00  0.00000000E+00  0.00000000E+00  0.00000000E+00
  0.00000000E+00  0.00000000E+00  0.00000000E+00  0.00000000E+00  0.00000000E+00
  0.00000000E+00  0.00000000E+00  0.00000000E+00  0.00000000E+00  0.00000000E+00
  0.00000000E+00  0.00000000E+00  0.00000000E+00  0.00000000E+00  0.00000000E+00
  0.00000000E+00  0.00000000E+00  0.00000000E+00  0.00000000E+00  0.00000000E+00
  0.00000000E+00  0.00000000E+00  0.00000000E+00  0.00000000E+00  0.00000000E+00
  0.00000000E+00  0.00000000E+00  0.00000000E+00  0.00000000E+00  0.00000000E+00
  0.00000000E+00  0.00000000E+00  0.00000000E+00  0.00000000E+00  0.00000000E+00
Mulliken Charges                           R   N=           2
 -1.18268036E+00  1.18268036E+00
Cartesian Gradient                         R   N=           6
  0.00000000E+00  0.00000000E+00  0.00000000E+00  0.00000000E+00  0.00000000E+00
  0.00000000E+00
Dipole Moment                              R   N=           3
 -1.59932370E-15  2.47117163E-14  5.83491565E-01
Quadrupole Moment                          R   N=           6
  8.37426576E-01  8.37426576E-01 -1.67485315E+00 -9.65840839E-17 -2.19659946E-16
  5.75814649E-14
Anisotropic Hyperfine tensors              R   N=          12
  0.00000000E+00  0.00000000E+00  0.00000000E+00  0.00000000E+00  0.00000000E+00
  0.00000000E+00  0.00000000E+00  0.00000000E+00  0.00000000E+00  0.00000000E+00
  0.00000000E+00  0.00000000E+00
Isotropic Hyperfine splittings             R   N=           2
  0.00000000E+00  0.00000000E+00
QEq coupling tensors                       R   N=          12
 -1.06151145E-01  2.63674116E-15 -1.06151145E-01  5.74821034E-15 -6.62981055E-16
  2.12302289E-01 -8.17361877E-01 -3.48705711E-16 -8.17361877E-01 -8.66926366E-16
 -5.38137280E-14  1.63472375E+00
