run                                                                     
SP        UHF                                                         Gen                 
Number of atoms                            I                2
Info1-9                                    I   N=           9
          32          32           0           0           0         110
           1           1           2
Charge                                     I                0
Multiplicity                               I                1
Number of electrons                        I               14
Number of alpha electrons                  I                7
Number of beta electrons                   I                7
Number of basis functions                  I               10
Number of independent functions            I               10
Number of point charges in /Mol/           I                0
Number of translation vectors              I                0
Atomic numbers                             I   N=           2
           7           7
Nuclear charges                            R   N=           2
  6.95000000E+00  7.00000000E+00
Current cartesian coordinates              R   N=           6
  0.00000000E+00  0.00000000E+00  0.00000000E+00  0.00000000E+00  0.00000000E+00
  1.88972613E+00
Force Field                                I                0
Int Atom Types                             I   N=           2
           0           0
MM charges                                 R   N=           2
  0.00000000E+00  0.00000000E+00
Integer atomic weights                     I   N=           2
          14          14
Real atomic weights                        R   N=           2
  1.40030740E+01  1.40030740E+01
Atom fragment info                         I   N=           2
           0           0
Atom residue num                           I   N=           2
           0           0
Nuclear spins                              I   N=           2
           2           2
Nuclear ZEff                               R   N=           2
 -4.55000000E+00 -4.55000000E+00
Nuclear ZNuc                               R   N=           2
  7.00000000E+00  7.00000000E+00
Nuclear QMom                               R   N=           2
  2.04400000E+00  2.04400000E+00
Nuclear GFac                               R   N=           2
  4.03761000E-01  4.03761000E-01
MicOpt                                     I   N=           2
          -1          -1
Number of contracted shells                I                4
Number of primitive shells                 I               12
Pure/Cartesian d shells                    I                0
Pure/Cartesian f shells                    I                0
Highest angular momentum                   I                1
Largest degree of contraction              I                3
Shell types                                I   N=           4
           0          -1           0          -1
Number of primitives per shell             I   N=           4
           3           3           3           3
Shell to atom map                          I   N=           4
           1           1           2           2
Primitive exponents                        R   N=          12
  9.91061690E+01  1.80523124E+01  4.88566024E+00  3.78045588E+00  8.78496645E-01
  2.85714374E-01  9.91061690E+01  1.80523124E+01  4.88566024E+00  3.78045588E+00
  8.78496645E-01  2.85714374E-01
Contraction coefficients                   R   N=          12
  1.54328967E-01  5.35328142E-01  4.44634542E-01 -9.99672292E-02  3.99512826E-01
  7.00115469E-01  1.54328967E-01  5.35328142E-01  4.44634542E-01 -9.99672292E-02
  3.99512826E-01  7.00115469E-01
P(S=P) Contraction coefficients            R   N=          12
  0.00000000E+00  0.00000000E+00  0.00000000E+00  1.55916275E-01  6.07683719E-01
  3.91957393E-01  0.00000000E+00  0.00000000E+00  0.00000000E+00  1.55916275E-01
  6.07683719E-01  3.91957393E-01
Coordinates of each shell                  R   N=          12
  0.00000000E+00  0.00000000E+00  0.00000000E+00  0.00000000E+00  0.00000000E+00
  0.00000000E+00  0.00000000E+00  0.00000000E+00  1.88972613E+00  0.00000000E+00
  0.00000000E+00  1.88972613E+00
Constraint Structure                       R   N=           6
  0.00000000E+00  0.00000000E+00  0.00000000E+00  0.00000000E+00  0.00000000E+00
  1.88972613E+00
Num ILSW                                   I              100
ILSW                                       I   N=         100
           1           0           0           0           2           0
           0           0           0           0           0          -1
           0           0           0           0           0           0
           0           0           1           0           0           0
           1           1           0           0           0           8
           0           0      100000           0          -1           0
           0           0           0           0           0           0
           0           0           0           1           0           0
           0           0           1           0           0           0
           0           0           4          41           0           0
           0           0           0           0           0           0
           0           0           0           0           0           0
           0           0           0           0           0           0
           0           0           0           0           0           0
           0           0           0           0           0           0
           0           0           0           0           0           0
           0           0           0           0
Num RLSW                                   I               41
RLSW                                       R   N=          41
  1.00000000E+00  1.00000000E+00  1.00000000E+00  1.00000000E+00  1.00000000E+00
  0.00000000E+00  0.00000000E+00  1.00000000E+00  0.00000000E+00  0.00000000E+00
  0.00000000E+00  0.00000000E+00  1.00000000E+00  0.00000000E+00  0.00000000E+00
  0.00000000E+00  0.00000000E+00  1.00000000E+00  0.00000000E+00  0.00000000E+00
  0.00000000E+00  0.00000000E+00  1.00000000E+00  0.00000000E+00  0.00000000E+00
  0.00000000E+00  0.00000000E+00  1.00000000E+00  0.00000000E+00  0.00000000E+00
  0.00000000E+00  0.00000000E+00  1.00000000E+00  0.00000000E+00  0.00000000E+00
  0.00000000E+00  0.00000000E+00  0.00000000E+00  1.00000000E+00  1.00000000E+00
  0.00000000E+00
MxBond                                     I                1
NBond                                      I   N=           2
           1           1
IBond                                      I   N=           2
           2           1
RBond                                      R   N=           2
  3.00000000E+00  3.00000000E+00
Virial Ratio                               R      2.000179117240564E+00
SCF Energy                                 R     -1.065240088550904E+02
Total Energy                               R     -1.065240088550904E+02
S**2                                       R     -8.881784197001252E-15
S**2 after annihilation                    R      1.616484723854214E-13
RMS Density                                R      3.108233744069248E-12
External E-field                           R   N=          35
  0.00000000E+00  0.00000000E+00  0.00000000E+00  0.00000000E+00  0.00000000E+00
  0.00000000E+00  0.00000000E+00  0.00000000E+00  0.00000000E+00  0.00000000E+00
  0.00000000E+00  0.00000000E+00  0.00000000E+00  0.00000000E+00  0.00000000E+00
  0.00000000E+00  0.00000000E+00  0.00000000E+00  0.00000000E+00  0.00000000E+00
  0.00000000E+00  0.00000000E+00  0.00000000E+00  0.00000000E+00  0.00000000E+00
  0.00000000E+00  0.00000000E+00  0.00000000E+00  0.00000000E+00  0.00000000E+00
  0.00000000E+00  0.00000000E+00  0.00000000E+00  0.00000000E+00  0.00000000E+00
IOpCl                                      I                1
IROHF                                      I                0
Alpha Orbital Energies                     R   N=          10
 -1.55098179E+01 -1.52508279E+01 -1.49624696E+00 -6.73952042E-01 -6.10958032E-01
 -6.10958032E-01 -5.29811443E-01  3.66879884E-01  3.66879884E-01  1.43352907E+00
Beta Orbital Energies                      R   N=          10
 -1.55098179E+01 -1.52508279E+01 -1.49624696E+00 -6.73952042E-01 -6.10958032E-01
 -6.10958032E-01 -5.29811443E-01  3.66879884E-01  3.66879884E-01  1.43352907E+00
Alpha MO coefficients                      R   N=         100
  9.04683145E-03 -1.23719587E-02 -8.84461672E-17 -1.53971655E-16 -5.72311011E-03
  9.93926098E-01  3.07504455E-02  2.03726045E-16  1.00535599E-16 -1.05643612E-02
  9.92988333E-01  3.58632689E-02 -2.41922949E-16 -2.84399872E-16  1.21852175E-02
 -9.57469150E-03 -1.52083504E-02  1.96730717E-17  7.15389095E-16  7.12007895E-03
 -1.85148104E-01  4.50008662E-01  3.03069328E-16  3.05627146E-16  2.63618665E-01
 -1.86120111E-01  4.70929911E-01 -2.44792042E-17  2.88568423E-17 -2.69010686E-01
  1.68867429E-01 -7.16915351E-01 -1.86997101E-15  4.95527387E-15  2.85380829E-01
 -1.67017897E-01  7.27470181E-01 -7.35556402E-16  5.94903628E-15  3.12998925E-01
 -1.03109436E-15  4.00561060E-15  2.11634288E-01  5.66080592E-01 -4.19605803E-16
  1.64853103E-15 -6.54624670E-15  2.16542935E-01  5.79210269E-01 -3.80756820E-15
  8.89719656E-16 -3.61082767E-15  5.66080592E-01 -2.11634288E-01  2.43054322E-15
 -7.16362837E-16  2.59268171E-15  5.79210269E-01 -2.16542935E-01  1.06259534E-15
  6.89339376E-02 -4.43822975E-01 -1.88462660E-15 -2.20266583E-15  6.09492247E-01
  6.11442500E-02 -4.09644083E-01 -4.92205474E-16 -4.77814214E-17 -6.02599108E-01
  1.74930294E-16 -7.82247203E-16  4.19011107E-01  7.66745243E-01  7.09272392E-16
 -4.65342068E-17  9.85430991E-17 -4.14281231E-01 -7.58090078E-01 -3.70440139E-16
  4.48490543E-18 -1.99694796E-18  7.66745243E-01 -4.19011107E-01 -3.48195902E-16
  5.13728266E-17 -3.46733693E-17 -7.58090078E-01  4.14281231E-01 -1.61392926E-16
 -1.25857740E-01  1.58616535E+00  4.53274760E-16 -1.21110672E-16  1.38575393E+00
  1.23453260E-01 -1.58456335E+00 -9.28834870E-17  1.50888591E-16  1.38177058E+00
Beta MO coefficients                       R   N=         100
  9.04683145E-03 -1.23719587E-02 -8.84461672E-17 -1.53971655E-16 -5.72311011E-03
  9.93926098E-01  3.07504455E-02  2.03726045E-16  1.00535599E-16 -1.05643612E-02
  9.92988333E-01  3.58632689E-02 -2.41922949E-16 -2.84399872E-16  1.21852175E-02
 -9.57469150E-03 -1.52083504E-02  1.96730717E-17  7.15389095E-16  7.12007895E-03
 -1.85148104E-01  4.50008662E-01  3.03069328E-16  3.05627146E-16  2.63618665E-01
 -1.86120111E-01  4.70929911E-01 -2.44792042E-17  2.88568423E-17 -2.69010686E-01
  1.68867429E-01 -7.16915351E-01 -1.86997101E-15  4.95527387E-15  2.85380829E-01
 -1.67017897E-01  7.27470181E-01 -7.35556402E-16  5.94903628E-15  3.12998925E-01
 -1.03109436E-15  4.00561060E-15  2.11634288E-01  5.66080592E-01 -4.19605803E-16
  1.64853103E-15 -6.54624670E-15  2.16542935E-01  5.79210269E-01 -3.80756820E-15
  8.89719656E-16 -3.61082767E-15  5.66080592E-01 -2.11634288E-01  2.43054322E-15
 -7.16362837E-16  2.59268171E-15  5.79210269E-01 -2.16542935E-01  1.06259534E-15
  6.89339376E-02 -4.43822975E-01 -1.88462660E-15 -2.20266583E-15  6.09492247E-01
  6.11442500E-02 -4.09644083E-01 -4.92205474E-16 -4.77814214E-17 -6.02599108E-01
  1.74930294E-16 -7.82247203E-16  4.19011107E-01  7.66745243E-01  7.09272392E-16
 -4.65342068E-17  9.85430991E-17 -4.14281231E-01 -7.58090078E-01 -3.70440139E-16
  4.48490543E-18 -1.99694796E-18  7.66745243E-01 -4.19011107E-01 -3.48195902E-16
  5.13728266E-17 -3.46733693E-17 -7.58090078E-01  4.14281231E-01 -1.61392926E-16
 -1.25857740E-01  1.58616535E+00  4.53274760E-16 -1.21110672E-16  1.38575393E+00
  1.23453260E-01 -1.58456335E+00 -9.28834870E-17  1.50888591E-16  1.38177058E+00
Total SCF Density                          R   N=          55
  2.10731118E+00 -3.98952975E-01  1.82978698E+00 -9.14786714E-16  2.21911704E-15
  7.30472617E-01 -8.54833516E-16  1.17199088E-15 -5.52335955E-15  7.30472617E-01
  1.06891469E-01 -7.11924138E-01 -6.35571544E-16 -1.20459965E-15  1.04519810E+00
  1.99102832E-02 -7.59076682E-03 -3.09755012E-18 -1.69376343E-16 -1.30533026E-01
  2.10851011E+00 -1.48153213E-02 -2.57456821E-01 -7.24763159E-16  7.92477951E-16
  1.63431520E-01 -4.06976323E-01  1.83994601E+00  3.19655732E-16 -9.82177642E-16
  7.47415204E-01 -5.99520433E-15  1.59928881E-15  4.83329855E-16 -5.09728825E-16
  7.64750758E-01  1.83472303E-15 -2.20872145E-15  6.18949336E-15  7.47415204E-01
  1.83002109E-15  4.02313635E-16  8.16662802E-20  6.05071548E-15  7.64750758E-01
  1.36194388E-01 -1.55234987E-01  5.27521962E-16  8.30864982E-16 -6.97449217E-01
 -9.92439214E-02  6.94860443E-01 -2.76177280E-16 -1.09675275E-15  1.06724612E+00
Spin SCF Density                           R   N=          55
  0.00000000E+00  0.00000000E+00  0.00000000E+00  0.00000000E+00  0.00000000E+00
  0.00000000E+00  0.00000000E+00  0.00000000E+00  0.00000000E+00  0.00000000E+00
  0.00000000E+00  0.00000000E+00  0.00000000E+00  0.00000000E+00  0.00000000E+00
  0.00000000E+00  0.00000000E+00  0.00000000E+00  0.00000000E+00  0.00000000E+00
  0.00000000E+00  0.00000000E+00  0.00000000E+00  0.00000000E+00  0.00000000E+00
  0.00000000E+00  0.00000000E+00  0.00000000E+00  0.00000000E+00  0.00000000E+00
  0.00000000E+00  0.00000000E+00  0.00000000E+00  0.00000000E+00  0.00000000E+00
  0.00000000E+00  0.00000000E+00  0.00000000E+00  0.00000000E+00  0.00000000E+00
  0.00000000E+00  0.00000000E+00  0.00000000E+00  0.00000000E+00  0.00000000E+00
  0.00000000E+00  0.00000000E+00  0.00000000E+00  0.00000000E+00  0.00000000E+00
  0.00000000E+00  0.00000000E+00  0.00000000E+00  0.00000000E+00  0.00000000E+00
Mulliken Charges                           R   N=           2
 -9.04658929E-04 -4.90953411E-02
Cartesian Gradient                         R   N=           6
  0.00000000E+00  0.00000000E+00  0.00000000E+00  0.00000000E+00  0.00000000E+00
  0.00000000E+00
Dipole Moment                              R   N=           3
 -1.99943508E-15 -1.36647113E-15 -7.51036961E-02
Quadrupole Moment                          R   N=           6
  7.10549974E-01  7.10549974E-01 -1.42109995E+00 -4.83101819E-16  1.61752119E-15
  1.24439503E-15
Anisotropic Hyperfine tensors              R   N=          12
  0.00000000E+00  0.00000000E+00  0.00000000E+00  0.00000000E+00  0.00000000E+00
  0.00000000E+00  0.00000000E+00  0.00000000E+00  0.00000000E+00  0.00000000E+00
  0.00000000E+00  0.00000000E+00
Isotropic Hyperfine splittings             R   N=           2
  0.00000000E+00  0.00000000E+00
QEq coupling tensors                       R   N=          12
 -1.45922161E-01 -1.47689953E-14 -1.45922161E-01  5.83429815E-16 -2.61836912E-15
  2.91844322E-01 -1.30483662E-01  1.63542883E-14 -1.30483662E-01 -1.42081729E-15
 -3.27674943E-15  2.60967323E-01
