run                                                                     
SP        UHF                                                         Gen                 
Number of atoms                            I                2
Info1-9                                    I   N=           9
          32          32           0           0           0         110
           1           1           2
Charge                                     I                0
Multiplicity                               I                1
Number of electrons                        I               14
Number of alpha electrons                  I                7
Number of beta electrons                   I                7
Number of basis functions                  I               10
Number of independent functions            I               10
Number of point charges in /Mol/           I                0
Number of translation vectors              I                0
Atomic numbers                             I   N=           2
           7           7
Nuclear charges                            R   N=           2
  7.00000000E+00  7.00000000E+00
Current cartesian coordinates              R   N=           6
  0.00000000E+00  0.00000000E+00  0.00000000E+00  0.00000000E+00  0.00000000E+00
  1.88972613E+00
Force Field                                I                0
Int Atom Types                             I   N=           2
           0           0
MM charges                                 R   N=           2
  0.00000000E+00  0.00000000E+00
Integer atomic weights                     I   N=           2
          14          14
Real atomic weights                        R   N=           2
  1.40030740E+01  1.40030740E+01
Atom fragment info                         I   N=           2
           0           0
Atom residue num                           I   N=           2
           0           0
Nuclear spins                              I   N=           2
           2           2
Nuclear ZEff                               R   N=           2
 -4.55000000E+00 -4.55000000E+00
Nuclear ZNuc                               R   N=           2
  7.00000000E+00  7.00000000E+00
Nuclear QMom                               R   N=           2
  2.04400000E+00  2.04400000E+00
Nuclear GFac                               R   N=           2
  4.03761000E-01  4.03761000E-01
MicOpt                                     I   N=           2
          -1          -1
Number of contracted shells                I                4
Number of primitive shells                 I               12
Pure/Cartesian d shells                    I                0
Pure/Cartesian f shells                    I                0
Highest angular momentum                   I                1
Largest degree of contraction              I                3
Shell types                                I   N=           4
           0          -1           0          -1
Number of primitives per shell             I   N=           4
           3           3           3           3
Shell to atom map                          I   N=           4
           1           1           2           2
Primitive exponents                        R   N=          12
  9.91061690E+01  1.80523124E+01  4.88566024E+00  3.78045588E+00  8.78496645E-01
  2.85714374E-01  9.91061690E+01  1.80523124E+01  4.88566024E+00  3.78045588E+00
  8.78496645E-01  2.85714374E-01
Contraction coefficients                   R   N=          12
  1.54328967E-01  5.35328142E-01  4.44634542E-01 -9.99672292E-02  3.99512826E-01
  7.00115469E-01  1.54328967E-01  5.35328142E-01  4.44634542E-01 -9.99672292E-02
  3.99512826E-01  7.00115469E-01
P(S=P) Contraction coefficients            R   N=          12
  0.00000000E+00  0.00000000E+00  0.00000000E+00  1.55916275E-01  6.07683719E-01
  3.91957393E-01  0.00000000E+00  0.00000000E+00  0.00000000E+00  1.55916275E-01
  6.07683719E-01  3.91957393E-01
Coordinates of each shell                  R   N=          12
  0.00000000E+00  0.00000000E+00  0.00000000E+00  0.00000000E+00  0.00000000E+00
  0.00000000E+00  0.00000000E+00  0.00000000E+00  1.88972613E+00  0.00000000E+00
  0.00000000E+00  1.88972613E+00
Constraint Structure                       R   N=           6
  0.00000000E+00  0.00000000E+00  0.00000000E+00  0.00000000E+00  0.00000000E+00
  1.88972613E+00
Num ILSW                                   I              100
ILSW                                       I   N=         100
           1           0           0           0           2           0
           0           0           0           0           0          -1
           0           0           0           0           0           0
           0           0           1           0           0           0
           1           1           0           0           0           8
           0           0      100000           0          -1           0
           0           0           0           0           0           0
           0           0           0           1           0           0
           0           0           1           0           0           0
           0           0           4          41           0           0
           0           0           0           0           0           0
           0           0           0           0           0           0
           0           0           0           0           0           0
           0           0           0           0           0           0
           0           0           0           0           0           0
           0           0           0           0           0           0
           0           0           0           0
Num RLSW                                   I               41
RLSW                                       R   N=          41
  1.00000000E+00  1.00000000E+00  1.00000000E+00  1.00000000E+00  1.00000000E+00
  0.00000000E+00  0.00000000E+00  1.00000000E+00  0.00000000E+00  0.00000000E+00
  0.00000000E+00  0.00000000E+00  1.00000000E+00  0.00000000E+00  0.00000000E+00
  0.00000000E+00  0.00000000E+00  1.00000000E+00  0.00000000E+00  0.00000000E+00
  0.00000000E+00  0.00000000E+00  1.00000000E+00  0.00000000E+00  0.00000000E+00
  0.00000000E+00  0.00000000E+00  1.00000000E+00  0.00000000E+00  0.00000000E+00
  0.00000000E+00  0.00000000E+00  1.00000000E+00  0.00000000E+00  0.00000000E+00
  0.00000000E+00  0.00000000E+00  0.00000000E+00  1.00000000E+00  1.00000000E+00
  0.00000000E+00
MxBond                                     I                1
NBond                                      I   N=           2
           1           1
IBond                                      I   N=           2
           2           1
RBond                                      R   N=           2
  3.00000000E+00  3.00000000E+00
Virial Ratio                               R      2.008382260680090E+00
SCF Energy                                 R     -1.074195325195160E+02
Total Energy                               R     -1.074195325195160E+02
S**2                                       R     -1.776356839400251E-15
S**2 after annihilation                    R      1.127986593019158E-13
RMS Density                                R      5.916507745022740E-14
External E-field                           R   N=          35
  0.00000000E+00  0.00000000E+00  0.00000000E+00  0.00000000E+00  0.00000000E+00
  0.00000000E+00  0.00000000E+00  0.00000000E+00  0.00000000E+00  0.00000000E+00
  0.00000000E+00  0.00000000E+00  0.00000000E+00  0.00000000E+00  0.00000000E+00
  0.00000000E+00  0.00000000E+00  0.00000000E+00  0.00000000E+00  0.00000000E+00
  0.00000000E+00  0.00000000E+00  0.00000000E+00  0.00000000E+00  0.00000000E+00
  0.00000000E+00  0.00000000E+00  0.00000000E+00  0.00000000E+00  0.00000000E+00
  0.00000000E+00  0.00000000E+00  0.00000000E+00  0.00000000E+00  0.00000000E+00
IOpCl                                      I                1
IROHF                                      I                0
Alpha Orbital Energies                     R   N=          10
 -1.55593028E+01 -1.55544642E+01 -1.54014814E+00 -7.10041789E-01 -6.46114050E-01
 -6.46114050E-01 -5.64964215E-01  3.29360869E-01  3.29360869E-01  1.38554519E+00
Beta Orbital Energies                      R   N=          10
 -1.55593028E+01 -1.55544642E+01 -1.54014814E+00 -7.10041789E-01 -6.46114050E-01
 -6.46114050E-01 -5.64964215E-01  3.29360869E-01  3.29360869E-01  1.38554519E+00
Alpha MO coefficients                      R   N=         100
  7.02667323E-01  1.28003255E-02 -6.05511398E-16  3.02699065E-16  3.40720734E-03
  7.02667323E-01  1.28003255E-02 -6.36533362E-17  6.43067927E-17 -3.40720734E-03
  7.03054182E-01  3.07492342E-02  1.53280307E-16 -1.49199372E-16  1.16546962E-02
 -7.03054182E-01 -3.07492342E-02 -1.35157845E-16 -1.37284935E-18  1.16546962E-02
 -1.84318564E-01  4.59301662E-01  1.51968641E-16 -8.36417304E-16  2.68034193E-01
 -1.84318564E-01  4.59301662E-01 -3.64703176E-16  5.97238019E-16 -2.68034193E-01
 -1.67266775E-01  7.25973259E-01 -2.92038354E-15 -2.66834168E-15 -2.96114706E-01
  1.67266775E-01 -7.25973259E-01  8.36509061E-16 -2.43911855E-15 -2.96114706E-01
 -1.39423459E-16  1.13201741E-15  5.69096307E-01 -2.23406441E-01 -1.66068533E-16
 -6.69128043E-18 -2.27403826E-16  5.69096307E-01 -2.23406441E-01  1.12040237E-15
 -9.04053634E-16  4.26490352E-15  2.23406441E-01  5.69096307E-01 -2.90562456E-15
  4.85024839E-16 -1.78621768E-15  2.23406441E-01  5.69096307E-01  3.77709576E-16
  6.51304747E-02 -4.28055130E-01  1.86866386E-15  3.12895754E-16  6.05448480E-01
  6.51304747E-02 -4.28055130E-01  2.26817508E-16  2.02703742E-15 -6.05448480E-01
 -3.40676522E-17  1.15634469E-15  8.35368826E-01  2.38919998E-01 -7.10574667E-16
 -9.75750045E-18 -9.33847592E-16 -8.35368826E-01 -2.38919998E-01 -3.64839949E-16
  3.52308456E-17 -4.65134461E-16 -2.38919998E-01  8.35368826E-01  8.54647932E-16
 -2.67223003E-17 -1.49279425E-16  2.38919998E-01 -8.35368826E-01 -7.56513912E-16
 -1.23595012E-01  1.58381763E+00  3.49373501E-16  6.05940138E-17  1.38443904E+00
  1.23595012E-01 -1.58381763E+00 -1.41930577E-16  1.39460005E-16  1.38443904E+00
Beta MO coefficients                       R   N=         100
  7.02667323E-01  1.28003255E-02 -6.05511398E-16  3.02699065E-16  3.40720734E-03
  7.02667323E-01  1.28003255E-02 -6.36533362E-17  6.43067927E-17 -3.40720734E-03
  7.03054182E-01  3.07492342E-02  1.53280307E-16 -1.49199372E-16  1.16546962E-02
 -7.03054182E-01 -3.07492342E-02 -1.35157845E-16 -1.37284935E-18  1.16546962E-02
 -1.84318564E-01  4.59301662E-01  1.51968641E-16 -8.36417304E-16  2.68034193E-01
 -1.84318564E-01  4.59301662E-01 -3.64703176E-16  5.97238019E-16 -2.68034193E-01
 -1.67266775E-01  7.25973259E-01 -2.92038354E-15 -2.66834168E-15 -2.96114706E-01
  1.67266775E-01 -7.25973259E-01  8.36509061E-16 -2.43911855E-15 -2.96114706E-01
 -1.39423459E-16  1.13201741E-15  5.69096307E-01 -2.23406441E-01 -1.66068533E-16
 -6.69128043E-18 -2.27403826E-16  5.69096307E-01 -2.23406441E-01  1.12040237E-15
 -9.04053634E-16  4.26490352E-15  2.23406441E-01  5.69096307E-01 -2.90562456E-15
  4.85024839E-16 -1.78621768E-15  2.23406441E-01  5.69096307E-01  3.77709576E-16
  6.51304747E-02 -4.28055130E-01  1.86866386E-15  3.12895754E-16  6.05448480E-01
  6.51304747E-02 -4.28055130E-01  2.26817508E-16  2.02703742E-15 -6.05448480E-01
 -3.40676522E-17  1.15634469E-15  8.35368826E-01  2.38919998E-01 -7.10574667E-16
 -9.75750045E-18 -9.33847592E-16 -8.35368826E-01 -2.38919998E-01 -3.64839949E-16
  3.52308456E-17 -4.65134461E-16 -2.38919998E-01  8.35368826E-01  8.54647932E-16
 -2.67223003E-17 -1.49279425E-16  2.38919998E-01 -8.35368826E-01 -7.56513912E-16
 -1.23595012E-01  1.58381763E+00  3.49373501E-16  6.05940138E-17  1.38443904E+00
  1.23595012E-01 -1.58381763E+00 -1.41930577E-16  1.39460005E-16  1.38443904E+00
Total SCF Density                          R   N=          55
  2.10844007E+00 -4.06711429E-01  1.84467149E+00 -3.36920655E-17 -2.51243141E-15
  7.47562088E-01  4.90654417E-16 -5.63442911E-16 -5.49560397E-15  7.47562088E-01
  1.00295275E-01 -7.01252298E-01  2.58592020E-15 -1.72359581E-15  1.05248310E+00
  1.93866408E-02 -7.46011620E-03 -1.64694912E-15  6.46668161E-16 -1.30600865E-01
  2.10844007E+00 -7.46011620E-03 -2.67259256E-01  1.69819489E-15  9.23552448E-16
  1.57199643E-01 -4.06711429E-01  1.84467149E+00 -9.57986126E-16  3.86949419E-15
  7.47562088E-01 -5.99520433E-15 -1.90713115E-15  7.53520660E-16 -2.79401676E-15
  7.47562088E-01 -1.84020837E-17 -3.78168790E-16  4.88498131E-15  7.47562088E-01
  9.86658978E-16 -1.24742900E-16  4.25004893E-16  4.38538095E-15  7.47562088E-01
  1.30600865E-01 -1.57199643E-01  8.37010335E-16  1.57351836E-15 -7.01204096E-01
 -1.00295275E-01  7.01252298E-01  8.66730458E-16 -1.40135030E-15  1.05248310E+00
Spin SCF Density                           R   N=          55
  0.00000000E+00  0.00000000E+00  0.00000000E+00  0.00000000E+00  0.00000000E+00
  0.00000000E+00  0.00000000E+00  0.00000000E+00  0.00000000E+00  0.00000000E+00
  0.00000000E+00  0.00000000E+00  0.00000000E+00  0.00000000E+00  0.00000000E+00
  0.00000000E+00  0.00000000E+00  0.00000000E+00  0.00000000E+00  0.00000000E+00
  0.00000000E+00  0.00000000E+00  0.00000000E+00  0.00000000E+00  0.00000000E+00
  0.00000000E+00  0.00000000E+00  0.00000000E+00  0.00000000E+00  0.00000000E+00
  0.00000000E+00  0.00000000E+00  0.00000000E+00  0.00000000E+00  0.00000000E+00
  0.00000000E+00  0.00000000E+00  0.00000000E+00  0.00000000E+00  0.00000000E+00
  0.00000000E+00  0.00000000E+00  0.00000000E+00  0.00000000E+00  0.00000000E+00
  0.00000000E+00  0.00000000E+00  0.00000000E+00  0.00000000E+00  0.00000000E+00
  0.00000000E+00  0.00000000E+00  0.00000000E+00  0.00000000E+00  0.00000000E+00
Mulliken Charges                           R   N=           2
  7.66053887E-15 -1.15463195E-14
Cartesian Gradient                         R   N=           6
  0.00000000E+00  0.00000000E+00  0.00000000E+00  0.00000000E+00  0.00000000E+00
  0.00000000E+00
Dipole Moment                              R   N=           3
  5.73752572E-15  1.58521188E-16 -1.59872116E-14
Quadrupole Moment                          R   N=           6
  6.59793020E-01  6.59793020E-01 -1.31958604E+00  1.25498646E-15  3.21583253E-15
  3.55856929E-16
Anisotropic Hyperfine tensors              R   N=          12
  0.00000000E+00  0.00000000E+00  0.00000000E+00  0.00000000E+00  0.00000000E+00
  0.00000000E+00  0.00000000E+00  0.00000000E+00  0.00000000E+00  0.00000000E+00
  0.00000000E+00  0.00000000E+00
Isotropic Hyperfine splittings             R   N=           2
  0.00000000E+00  0.00000000E+00
QEq coupling tensors                       R   N=          12
 -1.32148083E-01 -1.51132230E-14 -1.32148083E-01  7.18231226E-15 -5.28071495E-15
  2.64296166E-01 -1.32148083E-01  1.14572542E-14 -1.32148083E-01 -3.71086253E-16
 -2.91283701E-15  2.64296166E-01
