run                                                                     
SP        UHF                                                         Gen                 
Number of atoms                            I                2
Info1-9                                    I   N=           9
          32          32           0           0           0         110
           1           1           2
Charge                                     I                0
Multiplicity                               I                1
Number of electrons                        I               14
Number of alpha electrons                  I                7
Number of beta electrons                   I                7
Number of basis functions                  I               10
Number of independent functions            I               10
Number of point charges in /Mol/           I                0
Number of translation vectors              I                0
Atomic numbers                             I   N=           2
           7           7
Nuclear charges                            R   N=           2
  7.00000000E+00  7.00000000E+00
Current cartesian coordinates              R   N=           6
  0.00000000E+00  0.00000000E+00  0.00000000E+00  0.00000000E+00  0.00000000E+00
  1.88972613E+00
Force Field                                I                0
Int Atom Types                             I   N=           2
           0           0
MM charges                                 R   N=           2
  0.00000000E+00  0.00000000E+00
Integer atomic weights                     I   N=           2
          14          14
Real atomic weights                        R   N=           2
  1.40030740E+01  1.40030740E+01
Atom fragment info                         I   N=           2
           0           0
Atom residue num                           I   N=           2
           0           0
Nuclear spins                              I   N=           2
           2           2
Nuclear ZEff                               R   N=           2
 -4.55000000E+00 -4.55000000E+00
Nuclear ZNuc                               R   N=           2
  7.00000000E+00  7.00000000E+00
Nuclear QMom                               R   N=           2
  2.04400000E+00  2.04400000E+00
Nuclear GFac                               R   N=           2
  4.03761000E-01  4.03761000E-01
MicOpt                                     I   N=           2
          -1          -1
Number of contracted shells                I                4
Number of primitive shells                 I               12
Pure/Cartesian d shells                    I                0
Pure/Cartesian f shells                    I                0
Highest angular momentum                   I                1
Largest degree of contraction              I                3
Shell types                                I   N=           4
           0          -1           0          -1
Number of primitives per shell             I   N=           4
           3           3           3           3
Shell to atom map                          I   N=           4
           1           1           2           2
Primitive exponents                        R   N=          12
  9.91061690E+01  1.80523124E+01  4.88566024E+00  3.78045588E+00  8.78496645E-01
  2.85714374E-01  9.91061690E+01  1.80523124E+01  4.88566024E+00  3.78045588E+00
  8.78496645E-01  2.85714374E-01
Contraction coefficients                   R   N=          12
  1.54328967E-01  5.35328142E-01  4.44634542E-01 -9.99672292E-02  3.99512826E-01
  7.00115469E-01  1.54328967E-01  5.35328142E-01  4.44634542E-01 -9.99672292E-02
  3.99512826E-01  7.00115469E-01
P(S=P) Contraction coefficients            R   N=          12
  0.00000000E+00  0.00000000E+00  0.00000000E+00  1.55916275E-01  6.07683719E-01
  3.91957393E-01  0.00000000E+00  0.00000000E+00  0.00000000E+00  1.55916275E-01
  6.07683719E-01  3.91957393E-01
Coordinates of each shell                  R   N=          12
  0.00000000E+00  0.00000000E+00  0.00000000E+00  0.00000000E+00  0.00000000E+00
  0.00000000E+00  0.00000000E+00  0.00000000E+00  1.88972613E+00  0.00000000E+00
  0.00000000E+00  1.88972613E+00
Constraint Structure                       R   N=           6
  0.00000000E+00  0.00000000E+00  0.00000000E+00  0.00000000E+00  0.00000000E+00
  1.88972613E+00
Num ILSW                                   I              100
ILSW                                       I   N=         100
           1           0           0           0           2           0
           0           0           0           0           0          -1
           0           0           0           0           0           0
           0           0           1           0           0           0
           1           1           0           0           0           8
           0           0      100000           0          -1           0
           0           0           0           0           0           0
           0           0           0           1           0           0
           0           0           1           0           0           0
           0           0           4          41           0           0
           0           0           0           0           0           0
           0           0           0           0           0           0
           0           0           0           0           0           0
           0           0           0           0           0           0
           0           0           0           0           0           0
           0           0           0           0           0           0
           0           0           0           0
Num RLSW                                   I               41
RLSW                                       R   N=          41
  1.00000000E+00  1.00000000E+00  1.00000000E+00  1.00000000E+00  1.00000000E+00
  0.00000000E+00  0.00000000E+00  1.00000000E+00  0.00000000E+00  0.00000000E+00
  0.00000000E+00  0.00000000E+00  1.00000000E+00  0.00000000E+00  0.00000000E+00
  0.00000000E+00  0.00000000E+00  1.00000000E+00  0.00000000E+00  0.00000000E+00
  0.00000000E+00  0.00000000E+00  1.00000000E+00  0.00000000E+00  0.00000000E+00
  0.00000000E+00  0.00000000E+00  1.00000000E+00  0.00000000E+00  0.00000000E+00
  0.00000000E+00  0.00000000E+00  1.00000000E+00  0.00000000E+00  0.00000000E+00
  0.00000000E+00  0.00000000E+00  0.00000000E+00  1.00000000E+00  1.00000000E+00
  0.00000000E+00
MxBond                                     I                1
NBond                                      I   N=           2
           1           1
IBond                                      I   N=           2
           2           1
RBond                                      R   N=           2
  3.00000000E+00  3.00000000E+00
Virial Ratio                               R      2.008382260680090E+00
SCF Energy                                 R     -1.074195325195160E+02
Total Energy                               R     -1.074195325195160E+02
S**2                                       R      3.552713678800501E-15
S**2 after annihilation                    R     -5.240252676230762E-14
RMS Density                                R      4.602502637423475E-10
External E-field                           R   N=          35
  0.00000000E+00  0.00000000E+00  0.00000000E+00  0.00000000E+00  0.00000000E+00
  0.00000000E+00  0.00000000E+00  0.00000000E+00  0.00000000E+00  0.00000000E+00
  0.00000000E+00  0.00000000E+00  0.00000000E+00  0.00000000E+00  0.00000000E+00
  0.00000000E+00  0.00000000E+00  0.00000000E+00  0.00000000E+00  0.00000000E+00
  0.00000000E+00  0.00000000E+00  0.00000000E+00  0.00000000E+00  0.00000000E+00
  0.00000000E+00  0.00000000E+00  0.00000000E+00  0.00000000E+00  0.00000000E+00
  0.00000000E+00  0.00000000E+00  0.00000000E+00  0.00000000E+00  0.00000000E+00
IOpCl                                      I                1
IROHF                                      I                0
Alpha Orbital Energies                     R   N=          10
 -1.55593028E+01 -1.55544642E+01 -1.54014814E+00 -7.10041789E-01 -6.46114050E-01
 -6.46114050E-01 -5.64964215E-01  3.29360869E-01  3.29360869E-01  1.38554519E+00
Beta Orbital Energies                      R   N=          10
 -1.55593028E+01 -1.55544642E+01 -1.54014814E+00 -7.10041789E-01 -6.46114050E-01
 -6.46114050E-01 -5.64964215E-01  3.29360869E-01  3.29360869E-01  1.38554519E+00
Alpha MO coefficients                      R   N=         100
  7.02667323E-01  1.28003255E-02  1.28901203E-16  8.83838293E-17  3.40720734E-03
  7.02667323E-01  1.28003255E-02  2.06979591E-16  5.57913953E-16 -3.40720734E-03
  7.03054182E-01  3.07492342E-02  2.95180030E-16 -3.71447744E-16  1.16546962E-02
 -7.03054182E-01 -3.07492342E-02 -2.93591417E-16  3.65732508E-16  1.16546962E-02
 -1.84318564E-01  4.59301662E-01 -1.44080678E-16 -4.18593687E-17  2.68034193E-01
 -1.84318564E-01  4.59301662E-01  1.69662661E-16  9.37706987E-17 -2.68034193E-01
 -1.67266775E-01  7.25973259E-01  4.10653137E-16  1.34544051E-15 -2.96114706E-01
  1.67266775E-01 -7.25973259E-01 -2.95073467E-16 -5.83125534E-16 -2.96114706E-01
  3.81042909E-16 -2.94921358E-15 -3.13209107E-01  5.25053425E-01  3.57913429E-15
  2.04088649E-16 -2.14521673E-15 -3.13209107E-01  5.25053425E-01 -3.37661949E-15
 -5.00670186E-17 -1.40059187E-16  5.25053425E-01  3.13209107E-01 -2.67870039E-16
 -1.97059652E-16  5.85608040E-16  5.25053425E-01  3.13209107E-01  3.78656408E-16
  6.51304747E-02 -4.28055130E-01  1.75610762E-15 -3.73795540E-15  6.05448480E-01
  6.51304747E-02 -4.28055130E-01  2.28789323E-15 -1.95335949E-15 -6.05448480E-01
  2.67029617E-16 -1.32324145E-15 -1.71196032E-01  8.51830828E-01  8.81981776E-16
 -2.52422604E-16  1.06571443E-15  1.71196032E-01 -8.51830828E-01  3.75896353E-16
 -7.68097448E-17 -1.07479295E-16  8.51830828E-01  1.71196032E-01  3.70207517E-16
  1.06323513E-16 -3.94103801E-16 -8.51830828E-01 -1.71196032E-01 -6.28126997E-16
 -1.23595012E-01  1.58381763E+00  5.85235477E-17 -4.27428584E-17  1.38443904E+00
  1.23595012E-01 -1.58381763E+00 -2.99983470E-17  1.03813022E-16  1.38443904E+00
Beta MO coefficients                       R   N=         100
  7.02667323E-01  1.28003255E-02  1.28901203E-16  8.83838293E-17  3.40720734E-03
  7.02667323E-01  1.28003255E-02  2.06979591E-16  5.57913953E-16 -3.40720734E-03
  7.03054182E-01  3.07492342E-02  2.95180030E-16 -3.71447744E-16  1.16546962E-02
 -7.03054182E-01 -3.07492342E-02 -2.93591417E-16  3.65732508E-16  1.16546962E-02
 -1.84318564E-01  4.59301662E-01 -1.44080678E-16 -4.18593687E-17  2.68034193E-01
 -1.84318564E-01  4.59301662E-01  1.69662661E-16  9.37706987E-17 -2.68034193E-01
 -1.67266775E-01  7.25973259E-01  4.10653137E-16  1.34544051E-15 -2.96114706E-01
  1.67266775E-01 -7.25973259E-01 -2.95073467E-16 -5.83125534E-16 -2.96114706E-01
  3.81042909E-16 -2.94921358E-15 -3.13209107E-01  5.25053425E-01  3.57913429E-15
  2.04088649E-16 -2.14521673E-15 -3.13209107E-01  5.25053425E-01 -3.37661949E-15
 -5.00670186E-17 -1.40059187E-16  5.25053425E-01  3.13209107E-01 -2.67870039E-16
 -1.97059652E-16  5.85608040E-16  5.25053425E-01  3.13209107E-01  3.78656408E-16
  6.51304747E-02 -4.28055130E-01  1.75610762E-15 -3.73795540E-15  6.05448480E-01
  6.51304747E-02 -4.28055130E-01  2.28789323E-15 -1.95335949E-15 -6.05448480E-01
  2.67029617E-16 -1.32324145E-15 -1.71196032E-01  8.51830828E-01  8.81981776E-16
 -2.52422604E-16  1.06571443E-15  1.71196032E-01 -8.51830828E-01  3.75896353E-16
 -7.68097448E-17 -1.07479295E-16  8.51830828E-01  1.71196032E-01  3.70207517E-16
  1.06323513E-16 -3.94103801E-16 -8.51830828E-01 -1.71196032E-01 -6.28126997E-16
 -1.23595012E-01  1.58381763E+00  5.85235477E-17 -4.27428584E-17  1.38443904E+00
  1.23595012E-01 -1.58381763E+00 -2.99983470E-17  1.03813022E-16  1.38443904E+00
Cartesian Gradient                         R   N=           6
  0.00000000E+00  0.00000000E+00  0.00000000E+00  0.00000000E+00  0.00000000E+00
  0.00000000E+00
