run                                                                     
SP        UHF                                                         Gen                 
Number of atoms                            I                2
Info1-9                                    I   N=           9
          32          32           0           0           0         110
           1           1           2
Charge                                     I                0
Multiplicity                               I                1
Number of electrons                        I               14
Number of alpha electrons                  I                7
Number of beta electrons                   I                7
Number of basis functions                  I               10
Number of independent functions            I               10
Number of point charges in /Mol/           I                0
Number of translation vectors              I                0
Atomic numbers                             I   N=           2
           7           7
Nuclear charges                            R   N=           2
  7.00000000E+00  6.95000000E+00
Current cartesian coordinates              R   N=           6
  0.00000000E+00  0.00000000E+00  0.00000000E+00  0.00000000E+00  0.00000000E+00
  1.88972613E+00
Force Field                                I                0
Int Atom Types                             I   N=           2
           0           0
MM charges                                 R   N=           2
  0.00000000E+00  0.00000000E+00
Integer atomic weights                     I   N=           2
          14          14
Real atomic weights                        R   N=           2
  1.40030740E+01  1.40030740E+01
Atom fragment info                         I   N=           2
           0           0
Atom residue num                           I   N=           2
           0           0
Nuclear spins                              I   N=           2
           2           2
Nuclear ZEff                               R   N=           2
 -4.55000000E+00 -4.55000000E+00
Nuclear ZNuc                               R   N=           2
  7.00000000E+00  7.00000000E+00
Nuclear QMom                               R   N=           2
  2.04400000E+00  2.04400000E+00
Nuclear GFac                               R   N=           2
  4.03761000E-01  4.03761000E-01
MicOpt                                     I   N=           2
          -1          -1
Number of contracted shells                I                4
Number of primitive shells                 I               12
Pure/Cartesian d shells                    I                0
Pure/Cartesian f shells                    I                0
Highest angular momentum                   I                1
Largest degree of contraction              I                3
Shell types                                I   N=           4
           0          -1           0          -1
Number of primitives per shell             I   N=           4
           3           3           3           3
Shell to atom map                          I   N=           4
           1           1           2           2
Primitive exponents                        R   N=          12
  9.91061690E+01  1.80523124E+01  4.88566024E+00  3.78045588E+00  8.78496645E-01
  2.85714374E-01  9.91061690E+01  1.80523124E+01  4.88566024E+00  3.78045588E+00
  8.78496645E-01  2.85714374E-01
Contraction coefficients                   R   N=          12
  1.54328967E-01  5.35328142E-01  4.44634542E-01 -9.99672292E-02  3.99512826E-01
  7.00115469E-01  1.54328967E-01  5.35328142E-01  4.44634542E-01 -9.99672292E-02
  3.99512826E-01  7.00115469E-01
P(S=P) Contraction coefficients            R   N=          12
  0.00000000E+00  0.00000000E+00  0.00000000E+00  1.55916275E-01  6.07683719E-01
  3.91957393E-01  0.00000000E+00  0.00000000E+00  0.00000000E+00  1.55916275E-01
  6.07683719E-01  3.91957393E-01
Coordinates of each shell                  R   N=          12
  0.00000000E+00  0.00000000E+00  0.00000000E+00  0.00000000E+00  0.00000000E+00
  0.00000000E+00  0.00000000E+00  0.00000000E+00  1.88972613E+00  0.00000000E+00
  0.00000000E+00  1.88972613E+00
Constraint Structure                       R   N=           6
  0.00000000E+00  0.00000000E+00  0.00000000E+00  0.00000000E+00  0.00000000E+00
  1.88972613E+00
Num ILSW                                   I              100
ILSW                                       I   N=         100
           1           0           0           0           2           0
           0           0           0           0           0          -1
           0           0           0           0           0           0
           0           0           1           0           0           0
           1           1           0           0           0           8
           0           0      100000           0          -1           0
           0           0           0           0           0           0
           0           0           0           1           0           0
           0           0           1           0           0           0
           0           0           4          41           0           0
           0           0           0           0           0           0
           0           0           0           0           0           0
           0           0           0           0           0           0
           0           0           0           0           0           0
           0           0           0           0           0           0
           0           0           0           0           0           0
           0           0           0           0
Num RLSW                                   I               41
RLSW                                       R   N=          41
  1.00000000E+00  1.00000000E+00  1.00000000E+00  1.00000000E+00  1.00000000E+00
  0.00000000E+00  0.00000000E+00  1.00000000E+00  0.00000000E+00  0.00000000E+00
  0.00000000E+00  0.00000000E+00  1.00000000E+00  0.00000000E+00  0.00000000E+00
  0.00000000E+00  0.00000000E+00  1.00000000E+00  0.00000000E+00  0.00000000E+00
  0.00000000E+00  0.00000000E+00  1.00000000E+00  0.00000000E+00  0.00000000E+00
  0.00000000E+00  0.00000000E+00  1.00000000E+00  0.00000000E+00  0.00000000E+00
  0.00000000E+00  0.00000000E+00  1.00000000E+00  0.00000000E+00  0.00000000E+00
  0.00000000E+00  0.00000000E+00  0.00000000E+00  1.00000000E+00  1.00000000E+00
  0.00000000E+00
MxBond                                     I                1
NBond                                      I   N=           2
           1           1
IBond                                      I   N=           2
           2           1
RBond                                      R   N=           2
  3.00000000E+00  3.00000000E+00
Virial Ratio                               R      2.000179117240565E+00
SCF Energy                                 R     -1.065240088550906E+02
Total Energy                               R     -1.065240088550906E+02
S**2                                       R     -4.263256414560601E-14
S**2 after annihilation                    R      9.947598300641191E-14
RMS Density                                R      3.105949984279720E-12
External E-field                           R   N=          35
  0.00000000E+00  0.00000000E+00  0.00000000E+00  0.00000000E+00  0.00000000E+00
  0.00000000E+00  0.00000000E+00  0.00000000E+00  0.00000000E+00  0.00000000E+00
  0.00000000E+00  0.00000000E+00  0.00000000E+00  0.00000000E+00  0.00000000E+00
  0.00000000E+00  0.00000000E+00  0.00000000E+00  0.00000000E+00  0.00000000E+00
  0.00000000E+00  0.00000000E+00  0.00000000E+00  0.00000000E+00  0.00000000E+00
  0.00000000E+00  0.00000000E+00  0.00000000E+00  0.00000000E+00  0.00000000E+00
  0.00000000E+00  0.00000000E+00  0.00000000E+00  0.00000000E+00  0.00000000E+00
IOpCl                                      I                1
IROHF                                      I                0
Alpha Orbital Energies                     R   N=          10
 -1.55098179E+01 -1.52508279E+01 -1.49624696E+00 -6.73952042E-01 -6.10958032E-01
 -6.10958032E-01 -5.29811443E-01  3.66879884E-01  3.66879884E-01  1.43352907E+00
Beta Orbital Energies                      R   N=          10
 -1.55098179E+01 -1.52508279E+01 -1.49624696E+00 -6.73952042E-01 -6.10958032E-01
 -6.10958032E-01 -5.29811443E-01  3.66879884E-01  3.66879884E-01  1.43352907E+00
Alpha MO coefficients                      R   N=         100
  9.93926098E-01  3.07504455E-02 -2.56124703E-16  1.07976303E-16  1.05643612E-02
  9.04683145E-03 -1.23719587E-02  1.80394004E-16 -4.74059712E-16  5.72311011E-03
 -9.57469150E-03 -1.52083504E-02 -6.69740212E-16  3.43026565E-16 -7.12007895E-03
  9.92988333E-01  3.58632689E-02  4.20570200E-16  1.13255684E-16 -1.21852175E-02
 -1.86120111E-01  4.70929911E-01 -1.40556868E-16  2.97328279E-16  2.69010686E-01
 -1.85148104E-01  4.50008662E-01  5.14275677E-16 -1.10081365E-16 -2.63618665E-01
 -1.67017897E-01  7.27470181E-01 -4.14336688E-15 -2.69213055E-15 -3.12998925E-01
  1.68867429E-01 -7.16915351E-01 -4.01519397E-15 -1.97915788E-15 -2.85380829E-01
 -1.06607755E-15  5.08595981E-15  4.68468496E-01  4.03624390E-01 -1.69220985E-15
  1.24596593E-15 -5.52954041E-15  4.57849139E-01  3.94474935E-01 -1.97391277E-15
  1.45806286E-17  3.16210498E-16 -4.03624390E-01  4.68468496E-01 -1.98574115E-15
 -5.17887618E-16  2.77251233E-15 -3.94474935E-01  4.57849139E-01  2.41332665E-15
 -6.11442500E-02  4.09644083E-01  9.33349572E-16 -1.13483554E-15 -6.02599108E-01
 -6.89339376E-02  4.43822975E-01  1.95219879E-15 -1.58809847E-15  6.09492247E-01
  7.60013179E-19 -6.89879086E-18 -1.36335967E-01 -8.53077962E-01 -1.19743285E-17
 -6.48312398E-17  2.27838270E-16  1.37892524E-01  8.62817610E-01  1.03242091E-17
  1.67429991E-16 -4.54108816E-16 -8.53077962E-01  1.36335967E-01  2.68445428E-16
  7.91549456E-17 -2.39514577E-16  8.62817610E-01 -1.37892524E-01  3.51350109E-16
  1.23453260E-01 -1.58456335E+00 -4.93787287E-16  1.64260258E-16 -1.38177058E+00
 -1.25857740E-01  1.58616535E+00  1.64430970E-16 -1.68943860E-16 -1.38575393E+00
Beta MO coefficients                       R   N=         100
  9.93926098E-01  3.07504455E-02 -2.56124703E-16  1.07976303E-16  1.05643612E-02
  9.04683145E-03 -1.23719587E-02  1.80394004E-16 -4.74059712E-16  5.72311011E-03
 -9.57469150E-03 -1.52083504E-02 -6.69740212E-16  3.43026565E-16 -7.12007895E-03
  9.92988333E-01  3.58632689E-02  4.20570200E-16  1.13255684E-16 -1.21852175E-02
 -1.86120111E-01  4.70929911E-01 -1.40556868E-16  2.97328279E-16  2.69010686E-01
 -1.85148104E-01  4.50008662E-01  5.14275677E-16 -1.10081365E-16 -2.63618665E-01
 -1.67017897E-01  7.27470181E-01 -4.14336688E-15 -2.69213055E-15 -3.12998925E-01
  1.68867429E-01 -7.16915351E-01 -4.01519397E-15 -1.97915788E-15 -2.85380829E-01
 -1.06607755E-15  5.08595981E-15  4.68468496E-01  4.03624390E-01 -1.69220985E-15
  1.24596593E-15 -5.52954041E-15  4.57849139E-01  3.94474935E-01 -1.97391277E-15
  1.45806286E-17  3.16210498E-16 -4.03624390E-01  4.68468496E-01 -1.98574115E-15
 -5.17887618E-16  2.77251233E-15 -3.94474935E-01  4.57849139E-01  2.41332665E-15
 -6.11442500E-02  4.09644083E-01  9.33349572E-16 -1.13483554E-15 -6.02599108E-01
 -6.89339376E-02  4.43822975E-01  1.95219879E-15 -1.58809847E-15  6.09492247E-01
  7.60013179E-19 -6.89879086E-18 -1.36335967E-01 -8.53077962E-01 -1.19743285E-17
 -6.48312398E-17  2.27838270E-16  1.37892524E-01  8.62817610E-01  1.03242091E-17
  1.67429991E-16 -4.54108816E-16 -8.53077962E-01  1.36335967E-01  2.68445428E-16
  7.91549456E-17 -2.39514577E-16  8.62817610E-01 -1.37892524E-01  3.51350109E-16
  1.23453260E-01 -1.58456335E+00 -4.93787287E-16  1.64260258E-16 -1.38177058E+00
 -1.25857740E-01  1.58616535E+00  1.64430970E-16 -1.68943860E-16 -1.38575393E+00
Total SCF Density                          R   N=          55
  2.10851011E+00 -4.06976323E-01  1.83994601E+00 -1.84714787E-16 -8.81471575E-16
  7.64750758E-01  2.88511268E-16 -1.68494103E-16 -3.66373598E-15  7.64750758E-01
  9.92439214E-02 -6.94860443E-01  1.41486365E-15 -1.62133485E-17  1.06724612E+00
  1.99102832E-02 -1.48153213E-02 -1.22525762E-15  3.40904354E-16 -1.36194388E-01
  2.10731118E+00 -7.59076682E-03 -2.57456821E-01 -8.17771768E-16  1.27621484E-15
  1.55234987E-01 -3.98952975E-01  1.82978698E+00  2.73887141E-16  6.47953641E-16
  7.47415204E-01 -3.10862447E-15  4.52326681E-16  5.72372022E-16  7.27765282E-16
  7.30472617E-01 -8.75967240E-16 -1.48273985E-17  6.66133815E-15  7.47415204E-01
 -7.13416523E-17  3.16401397E-16 -4.74858859E-16  6.99440506E-15  7.30472617E-01
  1.30533026E-01 -1.63431520E-01 -2.07476251E-16  6.57027950E-16 -6.97449217E-01
 -1.06891469E-01  7.11924138E-01  6.80586568E-16 -1.03826421E-16  1.04519810E+00
Spin SCF Density                           R   N=          55
  0.00000000E+00  0.00000000E+00  0.00000000E+00  0.00000000E+00  0.00000000E+00
  0.00000000E+00  0.00000000E+00  0.00000000E+00  0.00000000E+00  0.00000000E+00
  0.00000000E+00  0.00000000E+00  0.00000000E+00  0.00000000E+00  0.00000000E+00
  0.00000000E+00  0.00000000E+00  0.00000000E+00  0.00000000E+00  0.00000000E+00
  0.00000000E+00  0.00000000E+00  0.00000000E+00  0.00000000E+00  0.00000000E+00
  0.00000000E+00  0.00000000E+00  0.00000000E+00  0.00000000E+00  0.00000000E+00
  0.00000000E+00  0.00000000E+00  0.00000000E+00  0.00000000E+00  0.00000000E+00
  0.00000000E+00  0.00000000E+00  0.00000000E+00  0.00000000E+00  0.00000000E+00
  0.00000000E+00  0.00000000E+00  0.00000000E+00  0.00000000E+00  0.00000000E+00
  0.00000000E+00  0.00000000E+00  0.00000000E+00  0.00000000E+00  0.00000000E+00
  0.00000000E+00  0.00000000E+00  0.00000000E+00  0.00000000E+00  0.00000000E+00
Mulliken Charges                           R   N=           2
 -4.90953411E-02 -9.04658929E-04
Cartesian Gradient                         R   N=           6
  0.00000000E+00  0.00000000E+00  0.00000000E+00  0.00000000E+00  0.00000000E+00
  0.00000000E+00
Dipole Moment                              R   N=           3
 -1.13885052E-16  4.89353237E-16 -1.93826105E-02
Quadrupole Moment                          R   N=           6
  6.75450777E-01  6.75450777E-01 -1.35090155E+00 -3.84030388E-15 -4.35604048E-15
  8.68696255E-16
Anisotropic Hyperfine tensors              R   N=          12
  0.00000000E+00  0.00000000E+00  0.00000000E+00  0.00000000E+00  0.00000000E+00
  0.00000000E+00  0.00000000E+00  0.00000000E+00  0.00000000E+00  0.00000000E+00
  0.00000000E+00  0.00000000E+00
Isotropic Hyperfine splittings             R   N=           2
  0.00000000E+00  0.00000000E+00
QEq coupling tensors                       R   N=          12
 -1.30483662E-01 -8.79576112E-15 -1.30483662E-01  3.90655226E-15  4.39891716E-16
  2.60967323E-01 -1.45922161E-01  1.98645289E-14 -1.45922161E-01 -1.18239635E-16
 -2.89038486E-16  2.91844322E-01
