run                                                                     
SP        UHF                                                         Gen                 
Number of atoms                            I                2
Info1-9                                    I   N=           9
          32          32           0           0           0         110
           1           1           2
Charge                                     I                0
Multiplicity                               I                1
Number of electrons                        I               14
Number of alpha electrons                  I                7
Number of beta electrons                   I                7
Number of basis functions                  I               10
Number of independent functions            I               10
Number of point charges in /Mol/           I                0
Number of translation vectors              I                0
Atomic numbers                             I   N=           2
           4          10
Nuclear charges                            R   N=           2
  4.00000000E+00  1.00000000E+01
Current cartesian coordinates              R   N=           6
  0.00000000E+00  0.00000000E+00  0.00000000E+00  0.00000000E+00  0.00000000E+00
  1.88972613E+00
Force Field                                I                0
Int Atom Types                             I   N=           2
           0           0
MM charges                                 R   N=           2
  0.00000000E+00  0.00000000E+00
Integer atomic weights                     I   N=           2
          14          14
Real atomic weights                        R   N=           2
  1.40030740E+01  1.40030740E+01
Atom fragment info                         I   N=           2
           0           0
Atom residue num                           I   N=           2
           0           0
Nuclear spins                              I   N=           2
           2           2
Nuclear ZEff                               R   N=           2
 -2.00000000E+00 -8.00000000E+00
Nuclear ZNuc                               R   N=           2
  4.00000000E+00  1.00000000E+01
Nuclear QMom                               R   N=           2
  2.04400000E+00  2.04400000E+00
Nuclear GFac                               R   N=           2
  4.03761000E-01  4.03761000E-01
MicOpt                                     I   N=           2
          -1          -1
Number of contracted shells                I                4
Number of primitive shells                 I               12
Pure/Cartesian d shells                    I                0
Pure/Cartesian f shells                    I                0
Highest angular momentum                   I                1
Largest degree of contraction              I                3
Shell types                                I   N=           4
           0          -1           0          -1
Number of primitives per shell             I   N=           4
           3           3           3           3
Shell to atom map                          I   N=           4
           1           1           2           2
Primitive exponents                        R   N=          12
  9.91061690E+01  1.80523124E+01  4.88566024E+00  3.78045588E+00  8.78496645E-01
  2.85714374E-01  9.91061690E+01  1.80523124E+01  4.88566024E+00  3.78045588E+00
  8.78496645E-01  2.85714374E-01
Contraction coefficients                   R   N=          12
  1.54328967E-01  5.35328142E-01  4.44634542E-01 -9.99672292E-02  3.99512826E-01
  7.00115469E-01  1.54328967E-01  5.35328142E-01  4.44634542E-01 -9.99672292E-02
  3.99512826E-01  7.00115469E-01
P(S=P) Contraction coefficients            R   N=          12
  0.00000000E+00  0.00000000E+00  0.00000000E+00  1.55916275E-01  6.07683719E-01
  3.91957393E-01  0.00000000E+00  0.00000000E+00  0.00000000E+00  1.55916275E-01
  6.07683719E-01  3.91957393E-01
Coordinates of each shell                  R   N=          12
  0.00000000E+00  0.00000000E+00  0.00000000E+00  0.00000000E+00  0.00000000E+00
  0.00000000E+00  0.00000000E+00  0.00000000E+00  1.88972613E+00  0.00000000E+00
  0.00000000E+00  1.88972613E+00
Constraint Structure                       R   N=           6
  0.00000000E+00  0.00000000E+00  0.00000000E+00  0.00000000E+00  0.00000000E+00
  1.88972613E+00
Num ILSW                                   I              100
ILSW                                       I   N=         100
           1           0           0           0           2           0
           0           0           0           0           0          -1
           0           0           0           0           0           0
           0           0           1           0           0           0
           1           1           0           0           0           8
           0           0      100000           0          -1           0
           0           0           0           0           0           0
           0           0           0           1           0           0
           0           0           1           0           0           0
           0           0           4          41           0           0
           0           0           0           0           0           0
           0           0           0           0           0           0
           0           0           0           0           0           0
           0           0           0           0           0           0
           0           0           0           0           0           0
           0           0           0           0           0           0
           0           0           0           0
Num RLSW                                   I               41
RLSW                                       R   N=          41
  1.00000000E+00  1.00000000E+00  1.00000000E+00  1.00000000E+00  1.00000000E+00
  0.00000000E+00  0.00000000E+00  1.00000000E+00  0.00000000E+00  0.00000000E+00
  0.00000000E+00  0.00000000E+00  1.00000000E+00  0.00000000E+00  0.00000000E+00
  0.00000000E+00  0.00000000E+00  1.00000000E+00  0.00000000E+00  0.00000000E+00
  0.00000000E+00  0.00000000E+00  1.00000000E+00  0.00000000E+00  0.00000000E+00
  0.00000000E+00  0.00000000E+00  1.00000000E+00  0.00000000E+00  0.00000000E+00
  0.00000000E+00  0.00000000E+00  1.00000000E+00  0.00000000E+00  0.00000000E+00
  0.00000000E+00  0.00000000E+00  0.00000000E+00  1.00000000E+00  1.00000000E+00
  0.00000000E+00
MxBond                                     I                1
NBond                                      I   N=           2
           1           1
IBond                                      I   N=           2
           2           1
RBond                                      R   N=           2
  3.00000000E+00  3.00000000E+00
Virial Ratio                               R      2.534064818521750E+00
SCF Energy                                 R     -1.235705948674849E+02
Total Energy                               R     -1.235705948674849E+02
S**2                                       R      5.329070518200751E-15
S**2 after annihilation                    R     -5.329070518200770E-14
RMS Density                                R      1.157026538741764E-10
External E-field                           R   N=          35
  0.00000000E+00  0.00000000E+00  0.00000000E+00  0.00000000E+00  0.00000000E+00
  0.00000000E+00  0.00000000E+00  0.00000000E+00  0.00000000E+00  0.00000000E+00
  0.00000000E+00  0.00000000E+00  0.00000000E+00  0.00000000E+00  0.00000000E+00
  0.00000000E+00  0.00000000E+00  0.00000000E+00  0.00000000E+00  0.00000000E+00
  0.00000000E+00  0.00000000E+00  0.00000000E+00  0.00000000E+00  0.00000000E+00
  0.00000000E+00  0.00000000E+00  0.00000000E+00  0.00000000E+00  0.00000000E+00
  0.00000000E+00  0.00000000E+00  0.00000000E+00  0.00000000E+00  0.00000000E+00
IOpCl                                      I                1
IROHF                                      I                0
Alpha Orbital Energies                     R   N=          10
 -3.22362208E+01 -3.01593146E+00 -1.99543641E+00 -1.31516288E+00 -1.29119909E+00
 -1.28075488E+00  2.43402228E-01  8.06321631E-01  1.27277836E+00  3.63321028E+00
Beta Orbital Energies                      R   N=          10
 -3.22362208E+01 -3.01593146E+00 -1.99543641E+00 -1.31516288E+00 -1.29119909E+00
 -1.28075488E+00  2.43402228E-01  8.06321631E-01  1.27277836E+00  3.63321028E+00
Alpha MO coefficients                      R   N=         100
 -1.08381573E-03  5.59956346E-02 -3.12323351E-16 -2.66405582E-17  3.20885919E-02
  1.01677929E+00 -1.13827140E-01  6.05788393E-16  2.18344513E-16  3.59681235E-02
  5.09283212E-01  7.04344996E-01 -7.15769208E-16  6.25337259E-16  1.36871976E-01
 -4.47050784E-02 -5.48445970E-04  2.63228576E-16 -3.03291741E-16 -6.60958415E-02
 -2.12594359E-01 -7.13666312E-01  6.27342342E-16 -1.99097677E-16 -1.40400926E-01
 -1.78414841E-01  1.32214286E+00  7.60395801E-16  2.75030557E-16 -3.76845883E-01
  1.29564411E-01  6.56575862E-01  3.33939409E-15 -3.25926479E-16  1.29051653E-01
 -1.72293827E-02 -1.46317782E-01 -1.46282455E-14 -1.64673563E-14  1.21389655E+00
  1.33805697E-15  6.54494875E-15  8.45263850E-03 -2.01440031E-02  1.74553659E-15
 -1.97283524E-16 -1.52616694E-15 -3.89699779E-01  9.28717528E-01  1.21496829E-14
  2.46292200E-15  1.24309659E-14 -6.55030143E-03 -2.74857633E-03  1.93919841E-15
 -2.53541006E-16 -3.16568058E-15  9.24301533E-01  3.87846780E-01  2.24779843E-14
 -1.46582441E-16 -1.47852352E-15  9.79632836E-01  4.11064385E-01 -1.01389715E-15
 -5.91937154E-17  4.91920909E-16 -3.24638379E-01 -1.36221726E-01 -3.56244484E-15
 -2.22309241E-16 -3.60063373E-18 -4.10986662E-01  9.79447609E-01 -1.41625925E-15
 -1.13926848E-16  1.48758952E-15  1.30826472E-01 -3.11780618E-01  1.07694854E-15
  2.11105197E-01  5.12586982E-01  2.36762924E-16  1.64712595E-15  1.40747612E+00
  2.75881611E-02 -9.77196432E-01 -3.76398504E-17 -6.41043580E-16  7.20339095E-01
 -8.38794669E-01  1.31469379E+00 -7.80300014E-17 -9.42466054E-17  6.37019325E-01
  2.76999108E-02 -8.32750623E-01  3.84882844E-18  2.03617574E-17  5.50276828E-01
Beta MO coefficients                       R   N=         100
 -1.08381573E-03  5.59956346E-02 -3.12323351E-16 -2.66405582E-17  3.20885919E-02
  1.01677929E+00 -1.13827140E-01  6.05788393E-16  2.18344513E-16  3.59681235E-02
  5.09283212E-01  7.04344996E-01 -7.15769208E-16  6.25337259E-16  1.36871976E-01
 -4.47050784E-02 -5.48445970E-04  2.63228576E-16 -3.03291741E-16 -6.60958415E-02
 -2.12594359E-01 -7.13666312E-01  6.27342342E-16 -1.99097677E-16 -1.40400926E-01
 -1.78414841E-01  1.32214286E+00  7.60395801E-16  2.75030557E-16 -3.76845883E-01
  1.29564411E-01  6.56575862E-01  3.33939409E-15 -3.25926479E-16  1.29051653E-01
 -1.72293827E-02 -1.46317782E-01 -1.46282455E-14 -1.64673563E-14  1.21389655E+00
  1.33805697E-15  6.54494875E-15  8.45263850E-03 -2.01440031E-02  1.74553659E-15
 -1.97283524E-16 -1.52616694E-15 -3.89699779E-01  9.28717528E-01  1.21496829E-14
  2.46292200E-15  1.24309659E-14 -6.55030143E-03 -2.74857633E-03  1.93919841E-15
 -2.53541006E-16 -3.16568058E-15  9.24301533E-01  3.87846780E-01  2.24779843E-14
 -1.46582441E-16 -1.47852352E-15  9.79632836E-01  4.11064385E-01 -1.01389715E-15
 -5.91937154E-17  4.91920909E-16 -3.24638379E-01 -1.36221726E-01 -3.56244484E-15
 -2.22309241E-16 -3.60063373E-18 -4.10986662E-01  9.79447609E-01 -1.41625925E-15
 -1.13926848E-16  1.48758952E-15  1.30826472E-01 -3.11780618E-01  1.07694854E-15
  2.11105197E-01  5.12586982E-01  2.36762924E-16  1.64712595E-15  1.40747612E+00
  2.75881611E-02 -9.77196432E-01 -3.76398504E-17 -6.41043580E-16  7.20339095E-01
 -8.38794669E-01  1.31469379E+00 -7.80300014E-17 -9.42466054E-17  6.37019325E-01
  2.76999108E-02 -8.32750623E-01  3.84882844E-18  2.03617574E-17  5.50276828E-01
Total SCF Density                          R   N=          55
  6.42707725E-01  1.19088138E+00  2.87929771E+00 -4.26626592E-16 -5.02598856E-16
  1.91958970E+00  4.49246076E-16 -8.13444054E-16  8.05079807E-01  3.38774528E-01
  2.32481535E-01  5.66267046E-01 -1.51262153E-15 -7.73281402E-16  1.12260729E-01
  2.36562533E-02  2.82927336E-01 -1.02604637E-15 -6.71345958E-17  9.86685435E-02
  2.13593474E+00 -6.00387274E-01 -2.09279532E+00  1.73300960E-15  5.75962280E-17
 -4.16480505E-01 -6.98163006E-01  3.56485510E+00 -2.41852372E-16 -1.01703067E-15
 -6.54749722E-01 -2.56275351E-01 -9.95546513E-16  1.16460948E-15  1.17126377E-15
  2.22317864E+00 -2.57740530E-16 -2.17237293E-16 -2.56275351E-01 -1.51540030E-01
  6.26154481E-16  3.93454901E-16  7.24444311E-17  8.15783167E-02  2.06299546E+00
  4.07385230E-01  2.04283433E+00  6.37829223E-16 -4.26764439E-15  4.03344729E-01
  1.71693346E-01 -1.35983328E+00 -1.68225006E-15  8.43016833E-16  3.24244002E+00
Spin SCF Density                           R   N=          55
  0.00000000E+00  0.00000000E+00  0.00000000E+00  0.00000000E+00  0.00000000E+00
  0.00000000E+00  0.00000000E+00  0.00000000E+00  0.00000000E+00  0.00000000E+00
  0.00000000E+00  0.00000000E+00  0.00000000E+00  0.00000000E+00  0.00000000E+00
  0.00000000E+00  0.00000000E+00  0.00000000E+00  0.00000000E+00  0.00000000E+00
  0.00000000E+00  0.00000000E+00  0.00000000E+00  0.00000000E+00  0.00000000E+00
  0.00000000E+00  0.00000000E+00  0.00000000E+00  0.00000000E+00  0.00000000E+00
  0.00000000E+00  0.00000000E+00  0.00000000E+00  0.00000000E+00  0.00000000E+00
  0.00000000E+00  0.00000000E+00  0.00000000E+00  0.00000000E+00  0.00000000E+00
  0.00000000E+00  0.00000000E+00  0.00000000E+00  0.00000000E+00  0.00000000E+00
  0.00000000E+00  0.00000000E+00  0.00000000E+00  0.00000000E+00  0.00000000E+00
  0.00000000E+00  0.00000000E+00  0.00000000E+00  0.00000000E+00  0.00000000E+00
Mulliken Charges                           R   N=           2
  2.24390024E-01 -2.24390024E-01
Cartesian Gradient                         R   N=           6
  0.00000000E+00  0.00000000E+00  0.00000000E+00  0.00000000E+00  0.00000000E+00
  0.00000000E+00
Dipole Moment                              R   N=           3
 -5.10490306E-16 -2.01205966E-15 -4.48338959E-01
Quadrupole Moment                          R   N=           6
 -1.92944852E-01  8.42806751E-01 -6.49861899E-01 -5.27489056E-01 -3.51213732E-18
 -1.60532493E-15
Anisotropic Hyperfine tensors              R   N=          12
  0.00000000E+00  0.00000000E+00  0.00000000E+00  0.00000000E+00  0.00000000E+00
  0.00000000E+00  0.00000000E+00  0.00000000E+00  0.00000000E+00  0.00000000E+00
  0.00000000E+00  0.00000000E+00
Isotropic Hyperfine splittings             R   N=           2
  0.00000000E+00  0.00000000E+00
QEq coupling tensors                       R   N=          12
  3.65387133E+00  2.11486272E+00 -4.98769232E-01 -3.10413214E-15  2.25370839E-15
 -3.15510209E+00 -2.72806954E-02  1.69329960E-01 -3.59768687E-01 -4.18591605E-15
 -1.55686138E-15  3.87049383E-01
