run                                                                     
SP        UHF                                                         Gen                 
Number of atoms                            I                2
Info1-9                                    I   N=           9
          32          32           0           0           0         110
           1           1           2
Charge                                     I                0
Multiplicity                               I                1
Number of electrons                        I               14
Number of alpha electrons                  I                7
Number of beta electrons                   I                7
Number of basis functions                  I               10
Number of independent functions            I               10
Number of point charges in /Mol/           I                0
Number of translation vectors              I                0
Atomic numbers                             I   N=           2
           6           8
Nuclear charges                            R   N=           2
  6.00000000E+00  8.00000000E+00
Current cartesian coordinates              R   N=           6
  0.00000000E+00  0.00000000E+00  0.00000000E+00  0.00000000E+00  0.00000000E+00
  1.88972613E+00
Force Field                                I                0
Int Atom Types                             I   N=           2
           0           0
MM charges                                 R   N=           2
  0.00000000E+00  0.00000000E+00
Integer atomic weights                     I   N=           2
          14          14
Real atomic weights                        R   N=           2
  1.40030740E+01  1.40030740E+01
Atom fragment info                         I   N=           2
           0           0
Atom residue num                           I   N=           2
           0           0
Nuclear spins                              I   N=           2
           2           2
Nuclear ZEff                               R   N=           2
 -3.60000000E+00 -5.60000000E+00
Nuclear ZNuc                               R   N=           2
  6.00000000E+00  8.00000000E+00
Nuclear QMom                               R   N=           2
  2.04400000E+00  2.04400000E+00
Nuclear GFac                               R   N=           2
  4.03761000E-01  4.03761000E-01
MicOpt                                     I   N=           2
          -1          -1
Number of contracted shells                I                4
Number of primitive shells                 I               12
Pure/Cartesian d shells                    I                0
Pure/Cartesian f shells                    I                0
Highest angular momentum                   I                1
Largest degree of contraction              I                3
Shell types                                I   N=           4
           0          -1           0          -1
Number of primitives per shell             I   N=           4
           3           3           3           3
Shell to atom map                          I   N=           4
           1           1           2           2
Primitive exponents                        R   N=          12
  7.16168374E+01  1.30450963E+01  3.53051216E+00  2.94124936E+00  6.83483096E-01
  2.22289916E-01  1.30709321E+02  2.38088661E+01  6.44360831E+00  5.03315132E+00
  1.16959613E+00  3.80388960E-01
Contraction coefficients                   R   N=          12
  1.54328967E-01  5.35328142E-01  4.44634542E-01 -9.99672292E-02  3.99512826E-01
  7.00115469E-01  1.54328967E-01  5.35328142E-01  4.44634542E-01 -9.99672292E-02
  3.99512826E-01  7.00115469E-01
P(S=P) Contraction coefficients            R   N=          12
  0.00000000E+00  0.00000000E+00  0.00000000E+00  1.55916275E-01  6.07683719E-01
  3.91957393E-01  0.00000000E+00  0.00000000E+00  0.00000000E+00  1.55916275E-01
  6.07683719E-01  3.91957393E-01
Coordinates of each shell                  R   N=          12
  0.00000000E+00  0.00000000E+00  0.00000000E+00  0.00000000E+00  0.00000000E+00
  0.00000000E+00  0.00000000E+00  0.00000000E+00  1.88972613E+00  0.00000000E+00
  0.00000000E+00  1.88972613E+00
Constraint Structure                       R   N=           6
  0.00000000E+00  0.00000000E+00  0.00000000E+00  0.00000000E+00  0.00000000E+00
  1.88972613E+00
Num ILSW                                   I              100
ILSW                                       I   N=         100
           1           0           0           0           2           0
           0           0           0           0           0          -1
           0           0           0           0           0           0
           0           0           1           0           0           0
           1           1           0           0           0           8
           0           0      100000           0          -1           0
           0           0           0           0           0           0
           0           0           0           1           0           0
           0           0           1           0           0           0
           0           0           4          41           0           0
           0           0           0           0           0           0
           0           0           0           0           0           0
           0           0           0           0           0           0
           0           0           0           0           0           0
           0           0           0           0           0           0
           0           0           0           0           0           0
           0           0           0           0
Num RLSW                                   I               41
RLSW                                       R   N=          41
  1.00000000E+00  1.00000000E+00  1.00000000E+00  1.00000000E+00  1.00000000E+00
  0.00000000E+00  0.00000000E+00  1.00000000E+00  0.00000000E+00  0.00000000E+00
  0.00000000E+00  0.00000000E+00  1.00000000E+00  0.00000000E+00  0.00000000E+00
  0.00000000E+00  0.00000000E+00  1.00000000E+00  0.00000000E+00  0.00000000E+00
  0.00000000E+00  0.00000000E+00  1.00000000E+00  0.00000000E+00  0.00000000E+00
  0.00000000E+00  0.00000000E+00  1.00000000E+00  0.00000000E+00  0.00000000E+00
  0.00000000E+00  0.00000000E+00  1.00000000E+00  0.00000000E+00  0.00000000E+00
  0.00000000E+00  0.00000000E+00  0.00000000E+00  1.00000000E+00  1.00000000E+00
  0.00000000E+00
MxBond                                     I                1
NBond                                      I   N=           2
           1           1
IBond                                      I   N=           2
           2           1
RBond                                      R   N=           2
  3.00000000E+00  3.00000000E+00
Virial Ratio                               R      2.002780610372081E+00
SCF Energy                                 R     -1.111436117085280E+02
Total Energy                               R     -1.111436117085280E+02
S**2                                       R     -7.993605777301127E-15
S**2 after annihilation                    R     -7.105427357600951E-15
RMS Density                                R      2.715760040064514E-09
External E-field                           R   N=          35
  0.00000000E+00  0.00000000E+00  0.00000000E+00  0.00000000E+00  0.00000000E+00
  0.00000000E+00  0.00000000E+00  0.00000000E+00  0.00000000E+00  0.00000000E+00
  0.00000000E+00  0.00000000E+00  0.00000000E+00  0.00000000E+00  0.00000000E+00
  0.00000000E+00  0.00000000E+00  0.00000000E+00  0.00000000E+00  0.00000000E+00
  0.00000000E+00  0.00000000E+00  0.00000000E+00  0.00000000E+00  0.00000000E+00
  0.00000000E+00  0.00000000E+00  0.00000000E+00  0.00000000E+00  0.00000000E+00
  0.00000000E+00  0.00000000E+00  0.00000000E+00  0.00000000E+00  0.00000000E+00
IOpCl                                      I                1
IROHF                                      I                0
Alpha Orbital Energies                     R   N=          10
 -2.04936191E+01 -1.11151085E+01 -1.57552351E+00 -7.21132531E-01 -6.42411348E-01
 -6.42411348E-01 -4.55420092E-01  3.74476998E-01  3.74476998E-01  1.29137436E+00
Beta Orbital Energies                      R   N=          10
 -2.04936191E+01 -1.11151085E+01 -1.57552351E+00 -7.21132531E-01 -6.42411348E-01
 -6.42411348E-01 -4.55420092E-01  3.74476998E-01  3.74476998E-01  1.29137436E+00
Alpha MO coefficients                      R   N=         100
  5.71087406E-05 -1.25618780E-02  1.14145681E-15  1.35829657E-16 -9.44064349E-03
  9.93871575E-01  3.21245678E-02  8.69427981E-17 -4.79309361E-16 -9.37202942E-03
  9.93369316E-01  2.64335290E-02 -9.40415255E-16  1.38325135E-15  7.78737973E-03
 -1.27930925E-03 -6.56224004E-03 -1.64406296E-15  7.67306497E-16 -2.01258061E-03
 -1.51809556E-01  2.01277858E-01  1.06251685E-16 -6.27042842E-17  1.69873892E-01
 -2.24383620E-01  7.47741511E-01  1.94315318E-16 -3.86594081E-16 -2.80694783E-01
  1.44676698E-01 -3.81761575E-01  6.72627218E-15  1.14161050E-15 -8.08626888E-02
 -1.30648180E-01  6.48752330E-01  1.04293111E-14  1.89509555E-15  7.19411185E-01
 -1.34965391E-15  2.92120856E-15  4.23904444E-01  1.27294964E-01  2.73401900E-15
  1.69363602E-15 -8.79619700E-15  7.33981260E-01  2.20408441E-01 -1.05685139E-14
 -2.53151920E-16  5.00893389E-16 -1.27294964E-01  4.23904444E-01 -6.23116647E-16
 -1.81379236E-16  1.02052762E-15 -2.20408441E-01  7.33981260E-01  1.48854603E-15
 -1.75915935E-01  8.45445302E-01 -1.15129091E-17  1.37473174E-15 -5.58477017E-01
  1.99687028E-02 -4.79445373E-02  2.84090993E-15 -1.17901212E-15  3.58822852E-01
 -2.66674201E-16  1.45078848E-15  8.34101111E-01 -4.71292619E-01 -4.06243476E-16
 -6.16896214E-17 -3.22105878E-16 -6.31692941E-01  3.56925817E-01  4.89505554E-16
  4.04639327E-17 -3.39391366E-16  4.71292619E-01  8.34101111E-01  2.40171033E-16
  1.75716420E-16  1.26065986E-17 -3.56925817E-01 -6.31692941E-01 -4.49660152E-16
  1.04174988E-01 -1.31367767E+00  3.47486480E-16 -3.97739063E-16 -1.44252135E+00
 -1.37890887E-01  1.49810438E+00 -1.49545414E-16  9.83889386E-17 -1.06408549E+00
Beta MO coefficients                       R   N=         100
  5.71087406E-05 -1.25618780E-02  1.14145681E-15  1.35829657E-16 -9.44064349E-03
  9.93871575E-01  3.21245678E-02  8.69427981E-17 -4.79309361E-16 -9.37202942E-03
  9.93369316E-01  2.64335290E-02 -9.40415255E-16  1.38325135E-15  7.78737973E-03
 -1.27930925E-03 -6.56224004E-03 -1.64406296E-15  7.67306497E-16 -2.01258061E-03
 -1.51809556E-01  2.01277858E-01  1.06251685E-16 -6.27042842E-17  1.69873892E-01
 -2.24383620E-01  7.47741511E-01  1.94315318E-16 -3.86594081E-16 -2.80694783E-01
  1.44676698E-01 -3.81761575E-01  6.72627218E-15  1.14161050E-15 -8.08626888E-02
 -1.30648180E-01  6.48752330E-01  1.04293111E-14  1.89509555E-15  7.19411185E-01
 -1.34965391E-15  2.92120856E-15  4.23904444E-01  1.27294964E-01  2.73401900E-15
  1.69363602E-15 -8.79619700E-15  7.33981260E-01  2.20408441E-01 -1.05685139E-14
 -2.53151920E-16  5.00893389E-16 -1.27294964E-01  4.23904444E-01 -6.23116647E-16
 -1.81379236E-16  1.02052762E-15 -2.20408441E-01  7.33981260E-01  1.48854603E-15
 -1.75915935E-01  8.45445302E-01 -1.15129091E-17  1.37473174E-15 -5.58477017E-01
  1.99687028E-02 -4.79445373E-02  2.84090993E-15 -1.17901212E-15  3.58822852E-01
 -2.66674201E-16  1.45078848E-15  8.34101111E-01 -4.71292619E-01 -4.06243476E-16
 -6.16896214E-17 -3.22105878E-16 -6.31692941E-01  3.56925817E-01  4.89505554E-16
  4.04639327E-17 -3.39391366E-16  4.71292619E-01  8.34101111E-01  2.40171033E-16
  1.75716420E-16  1.26065986E-17 -3.56925817E-01 -6.31692941E-01 -4.49660152E-16
  1.04174988E-01 -1.31367767E+00  3.47486480E-16 -3.97739063E-16 -1.44252135E+00
 -1.37890887E-01  1.49810438E+00 -1.49545414E-16  9.83889386E-17 -1.06408549E+00
Total SCF Density                          R   N=          55
  2.12341301E+00 -4.16515336E-01  1.80377793E+00 -1.02996734E-15 -2.84164987E-15
  3.91797971E-01  2.05563432E-15  2.66572099E-15 -2.67841305E-15  3.91797971E-01
  1.36985569E-01 -8.13550419E-01  1.40151517E-15 -1.55469415E-15  6.94884521E-01
  2.08698993E-02  1.81534728E-02  1.94769361E-15  3.28607182E-16 -9.61943338E-02
  2.11119610E+00 -3.54752946E-02 -2.76552787E-01  1.25574108E-15 -1.27988292E-16
  2.01966891E-01 -4.43121117E-01  1.96674136E+00 -3.17672509E-15  8.97191473E-16
  6.78389605E-01  2.49800181E-16 -5.32961611E-16  4.42909009E-17  2.15072995E-16
  1.17461674E+00  1.63835868E-15 -1.52053744E-15 -2.91433544E-15  6.78389605E-01
  1.19056326E-15 -8.43159209E-16 -4.26476751E-16  3.49720253E-15  1.17461674E+00
  1.63143512E-01 -5.54231328E-02  2.53341058E-16  1.22759814E-15 -6.12355497E-01
 -6.63064852E-02  4.78682162E-01  7.70235844E-16 -3.70131115E-16  1.45037548E+00
Spin SCF Density                           R   N=          55
  0.00000000E+00  0.00000000E+00  0.00000000E+00  0.00000000E+00  0.00000000E+00
  0.00000000E+00  0.00000000E+00  0.00000000E+00  0.00000000E+00  0.00000000E+00
  0.00000000E+00  0.00000000E+00  0.00000000E+00  0.00000000E+00  0.00000000E+00
  0.00000000E+00  0.00000000E+00  0.00000000E+00  0.00000000E+00  0.00000000E+00
  0.00000000E+00  0.00000000E+00  0.00000000E+00  0.00000000E+00  0.00000000E+00
  0.00000000E+00  0.00000000E+00  0.00000000E+00  0.00000000E+00  0.00000000E+00
  0.00000000E+00  0.00000000E+00  0.00000000E+00  0.00000000E+00  0.00000000E+00
  0.00000000E+00  0.00000000E+00  0.00000000E+00  0.00000000E+00  0.00000000E+00
  0.00000000E+00  0.00000000E+00  0.00000000E+00  0.00000000E+00  0.00000000E+00
  0.00000000E+00  0.00000000E+00  0.00000000E+00  0.00000000E+00  0.00000000E+00
  0.00000000E+00  0.00000000E+00  0.00000000E+00  0.00000000E+00  0.00000000E+00
Mulliken Charges                           R   N=           2
  2.34495747E-01 -2.34495747E-01
Cartesian Gradient                         R   N=           6
  0.00000000E+00  0.00000000E+00  0.00000000E+00  0.00000000E+00  0.00000000E+00
  0.00000000E+00
Dipole Moment                              R   N=           3
  3.80646601E-15 -3.27718024E-15  1.75167348E-01
Quadrupole Moment                          R   N=           6
  6.34173685E-01  6.34173685E-01 -1.26834737E+00  1.46806992E-15 -3.25965572E-15
  3.19181519E-15
Anisotropic Hyperfine tensors              R   N=          12
  0.00000000E+00  0.00000000E+00  0.00000000E+00  0.00000000E+00  0.00000000E+00
  0.00000000E+00  0.00000000E+00  0.00000000E+00  0.00000000E+00  0.00000000E+00
  0.00000000E+00  0.00000000E+00
Isotropic Hyperfine splittings             R   N=           2
  0.00000000E+00  0.00000000E+00
QEq coupling tensors                       R   N=          12
 -1.20546925E-01 -5.33586213E-15 -1.20546925E-01  2.54349962E-15 -3.16674183E-15
  2.41093850E-01 -1.49788709E-01  1.37688846E-14 -1.49788709E-01 -1.29257680E-16
 -3.40087674E-17  2.99577419E-01
