run                                                                     
SP        UHF                                                         Gen                 
Number of atoms                            I                2
Info1-9                                    I   N=           9
          32          32           0           0           0         110
           1           1           2
Charge                                     I                0
Multiplicity                               I                1
Number of electrons                        I               14
Number of alpha electrons                  I                7
Number of beta electrons                   I                7
Number of basis functions                  I               10
Number of independent functions            I               10
Number of point charges in /Mol/           I                0
Number of translation vectors              I                0
Atomic numbers                             I   N=           2
           5           9
Nuclear charges                            R   N=           2
  5.00000000E+00  9.00000000E+00
Current cartesian coordinates              R   N=           6
  0.00000000E+00  0.00000000E+00  0.00000000E+00  0.00000000E+00  0.00000000E+00
  1.88972613E+00
Force Field                                I                0
Int Atom Types                             I   N=           2
           0           0
MM charges                                 R   N=           2
  0.00000000E+00  0.00000000E+00
Integer atomic weights                     I   N=           2
          14          14
Real atomic weights                        R   N=           2
  1.40030740E+01  1.40030740E+01
Atom fragment info                         I   N=           2
           0           0
Atom residue num                           I   N=           2
           0           0
Nuclear spins                              I   N=           2
           2           2
Nuclear ZEff                               R   N=           2
 -2.75000000E+00 -6.75000000E+00
Nuclear ZNuc                               R   N=           2
  5.00000000E+00  9.00000000E+00
Nuclear QMom                               R   N=           2
  2.04400000E+00  2.04400000E+00
Nuclear GFac                               R   N=           2
  4.03761000E-01  4.03761000E-01
MicOpt                                     I   N=           2
          -1          -1
Number of contracted shells                I                4
Number of primitive shells                 I               12
Pure/Cartesian d shells                    I                0
Pure/Cartesian f shells                    I                0
Highest angular momentum                   I                1
Largest degree of contraction              I                3
Shell types                                I   N=           4
           0          -1           0          -1
Number of primitives per shell             I   N=           4
           3           3           3           3
Shell to atom map                          I   N=           4
           1           1           2           2
Primitive exponents                        R   N=          12
  9.91061690E+01  1.80523124E+01  4.88566024E+00  3.78045588E+00  8.78496645E-01
  2.85714374E-01  9.91061690E+01  1.80523124E+01  4.88566024E+00  3.78045588E+00
  8.78496645E-01  2.85714374E-01
Contraction coefficients                   R   N=          12
  1.54328967E-01  5.35328142E-01  4.44634542E-01 -9.99672292E-02  3.99512826E-01
  7.00115469E-01  1.54328967E-01  5.35328142E-01  4.44634542E-01 -9.99672292E-02
  3.99512826E-01  7.00115469E-01
P(S=P) Contraction coefficients            R   N=          12
  0.00000000E+00  0.00000000E+00  0.00000000E+00  1.55916275E-01  6.07683719E-01
  3.91957393E-01  0.00000000E+00  0.00000000E+00  0.00000000E+00  1.55916275E-01
  6.07683719E-01  3.91957393E-01
Coordinates of each shell                  R   N=          12
  0.00000000E+00  0.00000000E+00  0.00000000E+00  0.00000000E+00  0.00000000E+00
  0.00000000E+00  0.00000000E+00  0.00000000E+00  1.88972613E+00  0.00000000E+00
  0.00000000E+00  1.88972613E+00
Constraint Structure                       R   N=           6
  0.00000000E+00  0.00000000E+00  0.00000000E+00  0.00000000E+00  0.00000000E+00
  1.88972613E+00
Num ILSW                                   I              100
ILSW                                       I   N=         100
           1           0           0           0           2           0
           0           0           0           0           0          -1
           0           0           0           0           0           0
           0           0           1           0           0           0
           1           1           0           0           0           8
           0           0      100000           0          -1           0
           0           0           0           0           0           0
           0           0           0           1           0           0
           0           0           1           0           0           0
           0           0           4          41           0           0
           0           0           0           0           0           0
           0           0           0           0           0           0
           0           0           0           0           0           0
           0           0           0           0           0           0
           0           0           0           0           0           0
           0           0           0           0           0           0
           0           0           0           0
Num RLSW                                   I               41
RLSW                                       R   N=          41
  1.00000000E+00  1.00000000E+00  1.00000000E+00  1.00000000E+00  1.00000000E+00
  0.00000000E+00  0.00000000E+00  1.00000000E+00  0.00000000E+00  0.00000000E+00
  0.00000000E+00  0.00000000E+00  1.00000000E+00  0.00000000E+00  0.00000000E+00
  0.00000000E+00  0.00000000E+00  1.00000000E+00  0.00000000E+00  0.00000000E+00
  0.00000000E+00  0.00000000E+00  1.00000000E+00  0.00000000E+00  0.00000000E+00
  0.00000000E+00  0.00000000E+00  1.00000000E+00  0.00000000E+00  0.00000000E+00
  0.00000000E+00  0.00000000E+00  1.00000000E+00  0.00000000E+00  0.00000000E+00
  0.00000000E+00  0.00000000E+00  0.00000000E+00  1.00000000E+00  1.00000000E+00
  0.00000000E+00
MxBond                                     I                1
NBond                                      I   N=           2
           1           1
IBond                                      I   N=           2
           2           1
RBond                                      R   N=           2
  3.00000000E+00  3.00000000E+00
Virial Ratio                               R      2.112241533321476E+00
SCF Energy                                 R     -1.132548224396048E+02
Total Energy                               R     -1.132548224396048E+02
S**2                                       R     -1.776356839400251E-15
S**2 after annihilation                    R     -3.552713678800488E-15
RMS Density                                R      3.267554193462180E-09
External E-field                           R   N=          35
  0.00000000E+00  0.00000000E+00  0.00000000E+00  0.00000000E+00  0.00000000E+00
  0.00000000E+00  0.00000000E+00  0.00000000E+00  0.00000000E+00  0.00000000E+00
  0.00000000E+00  0.00000000E+00  0.00000000E+00  0.00000000E+00  0.00000000E+00
  0.00000000E+00  0.00000000E+00  0.00000000E+00  0.00000000E+00  0.00000000E+00
  0.00000000E+00  0.00000000E+00  0.00000000E+00  0.00000000E+00  0.00000000E+00
  0.00000000E+00  0.00000000E+00  0.00000000E+00  0.00000000E+00  0.00000000E+00
  0.00000000E+00  0.00000000E+00  0.00000000E+00  0.00000000E+00  0.00000000E+00
IOpCl                                      I                1
IROHF                                      I                0
Alpha Orbital Energies                     R   N=          10
 -2.64094052E+01 -5.68297900E+00 -1.79984866E+00 -9.73422937E-01 -9.64801298E-01
 -9.64801298E-01  1.97704334E-01  6.25899031E-01  6.25899031E-01  1.92855942E+00
Beta Orbital Energies                      R   N=          10
 -2.64094052E+01 -5.68297900E+00 -1.79984866E+00 -9.73422937E-01 -9.64801298E-01
 -9.64801298E-01  1.97704334E-01  6.25899031E-01  6.25899031E-01  1.92855942E+00
Alpha MO coefficients                      R   N=         100
 -8.34301677E-04  4.17446741E-02 -5.06481777E-16 -3.78703598E-16  2.39467012E-02
  1.01302960E+00 -8.48600536E-02  2.80397359E-16  4.11778617E-16  2.61837238E-02
  8.44042725E-01  4.84516153E-01  3.71474489E-16  4.59514150E-16  1.47136780E-01
 -3.73840655E-03 -1.88547740E-01 -4.54773471E-16  3.89959952E-16  8.72874799E-02
 -1.48616859E-01 -3.56865801E-01  4.06581340E-17 -4.96217859E-17 -1.30998040E-02
 -1.92552701E-01  1.14078496E+00  1.63517008E-15  1.00117010E-15 -4.50742704E-01
  9.85920755E-02  2.93671722E-01 -1.81286481E-15 -2.52580144E-15 -2.73248142E-02
 -5.16277342E-02  2.09712905E-01 -1.79977015E-14 -2.71996970E-14  1.04204049E+00
  5.50035320E-16  1.06034682E-15  7.34618817E-02 -4.02779091E-02  2.66481346E-16
  1.48185537E-17 -4.74765020E-16  8.49313485E-01 -4.65664240E-01  3.31830325E-15
  3.30971122E-15  1.04025379E-14  4.02779091E-02  7.34618817E-02 -8.86666013E-16
 -1.53297515E-15  5.72609561E-15  4.65664240E-01  8.49313485E-01  3.56416504E-14
  3.63016398E-01 -4.23618942E-01  1.15961670E-14  2.82609082E-15  8.80616875E-01
  2.56588232E-03 -3.12680999E-01 -5.02477825E-15 -1.26124525E-15  2.87421142E-01
 -4.53535771E-15  5.83710470E-15  1.01516274E+00  3.01878343E-01 -8.66491049E-15
 -2.84731923E-16  2.38997229E-15 -4.18388545E-01 -1.24415954E-01 -2.17869902E-15
 -2.70619759E-17  8.98713911E-17 -3.01878343E-01  1.01516274E+00  4.83761302E-16
 -7.22911606E-17 -4.76130215E-16  1.24415954E-01 -4.18388545E-01  4.00907371E-16
 -4.39884840E-01  1.67369836E+00 -7.48041593E-16 -3.79637828E-16  1.28229716E+00
  5.91968776E-02 -1.39460507E+00  2.22583294E-16  8.96944435E-17  1.03100924E+00
Beta MO coefficients                       R   N=         100
 -8.34301677E-04  4.17446741E-02 -5.06481777E-16 -3.78703598E-16  2.39467012E-02
  1.01302960E+00 -8.48600536E-02  2.80397359E-16  4.11778617E-16  2.61837238E-02
  8.44042725E-01  4.84516153E-01  3.71474489E-16  4.59514150E-16  1.47136780E-01
 -3.73840655E-03 -1.88547740E-01 -4.54773471E-16  3.89959952E-16  8.72874799E-02
 -1.48616859E-01 -3.56865801E-01  4.06581340E-17 -4.96217859E-17 -1.30998040E-02
 -1.92552701E-01  1.14078496E+00  1.63517008E-15  1.00117010E-15 -4.50742704E-01
  9.85920755E-02  2.93671722E-01 -1.81286481E-15 -2.52580144E-15 -2.73248142E-02
 -5.16277342E-02  2.09712905E-01 -1.79977015E-14 -2.71996970E-14  1.04204049E+00
  5.50035320E-16  1.06034682E-15  7.34618817E-02 -4.02779091E-02  2.66481346E-16
  1.48185537E-17 -4.74765020E-16  8.49313485E-01 -4.65664240E-01  3.31830325E-15
  3.30971122E-15  1.04025379E-14  4.02779091E-02  7.34618817E-02 -8.86666013E-16
 -1.53297515E-15  5.72609561E-15  4.65664240E-01  8.49313485E-01  3.56416504E-14
  3.63016398E-01 -4.23618942E-01  1.15961670E-14  2.82609082E-15  8.80616875E-01
  2.56588232E-03 -3.12680999E-01 -5.02477825E-15 -1.26124525E-15  2.87421142E-01
 -4.53535771E-15  5.83710470E-15  1.01516274E+00  3.01878343E-01 -8.66491049E-15
 -2.84731923E-16  2.38997229E-15 -4.18388545E-01 -1.24415954E-01 -2.17869902E-15
 -2.70619759E-17  8.98713911E-17 -3.01878343E-01  1.01516274E+00  4.83761302E-16
 -7.22911606E-17 -4.76130215E-16  1.24415954E-01 -4.18388545E-01  4.00907371E-16
 -4.39884840E-01  1.67369836E+00 -7.48041593E-16 -3.79637828E-16  1.28229716E+00
  5.91968776E-02 -1.39460507E+00  2.22583294E-16  8.96944435E-17  1.03100924E+00
Total SCF Density                          R   N=          55
  1.75199418E+00  6.74253726E-01  1.25909562E+00  9.02499990E-15 -9.60704518E-15
  1.40379160E-02  2.78683362E-15 -1.98583824E-15 -1.16226473E-16  1.40379160E-02
  8.86201915E-01 -6.08211697E-01  2.05743521E-14  5.08208725E-15  1.59725401E+00
  4.09148047E-02  1.85888368E-01 -9.19213040E-16 -7.02720547E-16  5.98026803E-02
  2.13198298E+00 -8.42887454E-01 -6.15919352E-01 -7.58200521E-15 -2.16939418E-15
 -6.51602030E-01 -6.33102815E-01  2.97178143E+00 -4.43447419E-15  3.59131143E-15
  1.62296297E-01  5.55111512E-15 -8.40260568E-15  3.71831977E-16  3.97469092E-15
  1.87635316E+00 -8.09336282E-16  1.47320745E-15 -7.03603842E-15  1.62296297E-01
 -2.38094473E-15  6.30107350E-16  1.61644290E-15 -1.55431223E-15  1.87635316E+00
  6.95432009E-01  7.77001330E-01  6.24816421E-15  1.43499978E-15  4.88018397E-01
  1.19859191E-01 -8.08444198E-01 -3.10526924E-15 -7.72849079E-16  2.75986593E+00
Spin SCF Density                           R   N=          55
  0.00000000E+00  0.00000000E+00  0.00000000E+00  0.00000000E+00  0.00000000E+00
  0.00000000E+00  0.00000000E+00  0.00000000E+00  0.00000000E+00  0.00000000E+00
  0.00000000E+00  0.00000000E+00  0.00000000E+00  0.00000000E+00  0.00000000E+00
  0.00000000E+00  0.00000000E+00  0.00000000E+00  0.00000000E+00  0.00000000E+00
  0.00000000E+00  0.00000000E+00  0.00000000E+00  0.00000000E+00  0.00000000E+00
  0.00000000E+00  0.00000000E+00  0.00000000E+00  0.00000000E+00  0.00000000E+00
  0.00000000E+00  0.00000000E+00  0.00000000E+00  0.00000000E+00  0.00000000E+00
  0.00000000E+00  0.00000000E+00  0.00000000E+00  0.00000000E+00  0.00000000E+00
  0.00000000E+00  0.00000000E+00  0.00000000E+00  0.00000000E+00  0.00000000E+00
  0.00000000E+00  0.00000000E+00  0.00000000E+00  0.00000000E+00  0.00000000E+00
  0.00000000E+00  0.00000000E+00  0.00000000E+00  0.00000000E+00  0.00000000E+00
Mulliken Charges                           R   N=           2
  1.18268036E+00 -1.18268036E+00
Cartesian Gradient                         R   N=           6
  0.00000000E+00  0.00000000E+00  0.00000000E+00  0.00000000E+00  0.00000000E+00
  0.00000000E+00
Dipole Moment                              R   N=           3
  1.93697514E-14  3.07514819E-15 -5.83491565E-01
Quadrupole Moment                          R   N=           6
  1.57251942E+00  1.57251942E+00 -3.14503883E+00  1.82537915E-15 -1.39133525E-14
 -5.30803880E-15
Anisotropic Hyperfine tensors              R   N=          12
  0.00000000E+00  0.00000000E+00  0.00000000E+00  0.00000000E+00  0.00000000E+00
  0.00000000E+00  0.00000000E+00  0.00000000E+00  0.00000000E+00  0.00000000E+00
  0.00000000E+00  0.00000000E+00
Isotropic Hyperfine splittings             R   N=           2
  0.00000000E+00  0.00000000E+00
QEq coupling tensors                       R   N=          12
 -8.17361877E-01 -4.53605723E-16 -8.17361877E-01  4.97089592E-14  1.24256710E-14
  1.63472375E+00 -1.06151145E-01 -4.63323134E-15 -1.06151145E-01 -3.73514573E-15
  1.06496405E-15  2.12302289E-01
