run                                                                     
SP        UHF                                                         Gen                 
Number of atoms                            I                2
Info1-9                                    I   N=           9
          32          32           0           0           0         110
           1           1           2
Charge                                     I                0
Multiplicity                               I                1
Number of electrons                        I               14
Number of alpha electrons                  I                7
Number of beta electrons                   I                7
Number of basis functions                  I               10
Number of independent functions            I               10
Number of point charges in /Mol/           I                0
Number of translation vectors              I                0
Atomic numbers                             I   N=           2
          13           1
Nuclear charges                            R   N=           2
  1.30000000E+01  1.00000000E+00
Current cartesian coordinates              R   N=           6
  0.00000000E+00  0.00000000E+00  0.00000000E+00  0.00000000E+00  0.00000000E+00
  1.88972613E+00
Force Field                                I                0
Int Atom Types                             I   N=           2
           0           0
MM charges                                 R   N=           2
  0.00000000E+00  0.00000000E+00
Integer atomic weights                     I   N=           2
          14          14
Real atomic weights                        R   N=           2
  1.40030740E+01  1.40030740E+01
Atom fragment info                         I   N=           2
           0           0
Atom residue num                           I   N=           2
           0           0
Nuclear spins                              I   N=           2
           2           2
Nuclear ZEff                               R   N=           2
 -1.15300000E+01 -1.00000000E+00
Nuclear ZNuc                               R   N=           2
  1.30000000E+01  1.00000000E+00
Nuclear QMom                               R   N=           2
  2.04400000E+00  2.04400000E+00
Nuclear GFac                               R   N=           2
  4.03761000E-01  4.03761000E-01
MicOpt                                     I   N=           2
          -1          -1
Number of contracted shells                I                4
Number of primitive shells                 I               12
Pure/Cartesian d shells                    I                0
Pure/Cartesian f shells                    I                0
Highest angular momentum                   I                1
Largest degree of contraction              I                3
Shell types                                I   N=           4
           0          -1           0          -1
Number of primitives per shell             I   N=           4
           3           3           3           3
Shell to atom map                          I   N=           4
           1           1           2           2
Primitive exponents                        R   N=          12
  9.91061690E+01  1.80523124E+01  4.88566024E+00  3.78045588E+00  8.78496645E-01
  2.85714374E-01  9.91061690E+01  1.80523124E+01  4.88566024E+00  3.78045588E+00
  8.78496645E-01  2.85714374E-01
Contraction coefficients                   R   N=          12
  1.54328967E-01  5.35328142E-01  4.44634542E-01 -9.99672292E-02  3.99512826E-01
  7.00115469E-01  1.54328967E-01  5.35328142E-01  4.44634542E-01 -9.99672292E-02
  3.99512826E-01  7.00115469E-01
P(S=P) Contraction coefficients            R   N=          12
  0.00000000E+00  0.00000000E+00  0.00000000E+00  1.55916275E-01  6.07683719E-01
  3.91957393E-01  0.00000000E+00  0.00000000E+00  0.00000000E+00  1.55916275E-01
  6.07683719E-01  3.91957393E-01
Coordinates of each shell                  R   N=          12
  0.00000000E+00  0.00000000E+00  0.00000000E+00  0.00000000E+00  0.00000000E+00
  0.00000000E+00  0.00000000E+00  0.00000000E+00  1.88972613E+00  0.00000000E+00
  0.00000000E+00  1.88972613E+00
Constraint Structure                       R   N=           6
  0.00000000E+00  0.00000000E+00  0.00000000E+00  0.00000000E+00  0.00000000E+00
  1.88972613E+00
Num ILSW                                   I              100
ILSW                                       I   N=         100
           1           0           0           0           2           0
           0           0           0           0           0          -1
           0           0           0           0           0           0
           0           0           1           0           0           0
           1           1           0           0           0           8
           0           0      100000           0          -1           0
           0           0           0           0           0           0
           0           0           0           1           0           0
           0           0           1           0           0           0
           0           0           4          41           0           0
           0           0           0           0           0           0
           0           0           0           0           0           0
           0           0           0           0           0           0
           0           0           0           0           0           0
           0           0           0           0           0           0
           0           0           0           0           0           0
           0           0           0           0
Num RLSW                                   I               41
RLSW                                       R   N=          41
  1.00000000E+00  1.00000000E+00  1.00000000E+00  1.00000000E+00  1.00000000E+00
  0.00000000E+00  0.00000000E+00  1.00000000E+00  0.00000000E+00  0.00000000E+00
  0.00000000E+00  0.00000000E+00  1.00000000E+00  0.00000000E+00  0.00000000E+00
  0.00000000E+00  0.00000000E+00  1.00000000E+00  0.00000000E+00  0.00000000E+00
  0.00000000E+00  0.00000000E+00  1.00000000E+00  0.00000000E+00  0.00000000E+00
  0.00000000E+00  0.00000000E+00  1.00000000E+00  0.00000000E+00  0.00000000E+00
  0.00000000E+00  0.00000000E+00  1.00000000E+00  0.00000000E+00  0.00000000E+00
  0.00000000E+00  0.00000000E+00  0.00000000E+00  1.00000000E+00  1.00000000E+00
  0.00000000E+00
MxBond                                     I                1
NBond                                      I   N=           2
           1           1
IBond                                      I   N=           2
           2           1
RBond                                      R   N=           2
  3.00000000E+00  3.00000000E+00
Virial Ratio                               R      3.586979435777804E+00
SCF Energy                                 R     -1.777826460177299E+02
Total Energy                               R     -1.777826460177299E+02
S**2                                       R     -1.776356839400251E-15
S**2 after annihilation                    R      1.136868377216160E-13
RMS Density                                R      7.779870130774811E-10
External E-field                           R   N=          35
  0.00000000E+00  0.00000000E+00  0.00000000E+00  0.00000000E+00  0.00000000E+00
  0.00000000E+00  0.00000000E+00  0.00000000E+00  0.00000000E+00  0.00000000E+00
  0.00000000E+00  0.00000000E+00  0.00000000E+00  0.00000000E+00  0.00000000E+00
  0.00000000E+00  0.00000000E+00  0.00000000E+00  0.00000000E+00  0.00000000E+00
  0.00000000E+00  0.00000000E+00  0.00000000E+00  0.00000000E+00  0.00000000E+00
  0.00000000E+00  0.00000000E+00  0.00000000E+00  0.00000000E+00  0.00000000E+00
  0.00000000E+00  0.00000000E+00  0.00000000E+00  0.00000000E+00  0.00000000E+00
IOpCl                                      I                1
IROHF                                      I                0
Alpha Orbital Energies                     R   N=          10
 -5.07148639E+01 -3.63305402E+00 -3.19639881E+00 -2.85723324E+00 -2.83990726E+00
  2.02564676E-01  1.48895496E+00  2.05757035E+00  2.78638104E+00  1.90548214E+01
Beta Orbital Energies                      R   N=          10
 -5.07148639E+01 -3.63305402E+00 -3.19639881E+00 -2.85723324E+00 -2.83990726E+00
  2.02564676E-01  1.48895496E+00  2.05757035E+00  2.78638104E+00  1.90548214E+01
Alpha MO coefficients                      R   N=         100
  1.02197357E+00 -1.59987083E-01  6.68570078E-17  1.86677853E-16 -5.18310216E-02
 -1.54774030E-03  7.91267256E-02 -4.77343480E-16 -9.74245029E-16 -4.53644872E-02
 -1.54242220E-01  1.34467610E+00  1.45667148E-16  2.38456097E-15  5.07064726E-01
 -3.63079686E-03 -5.17233443E-01  2.39710067E-16 -3.24983371E-16  2.40734863E-01
  2.44262562E-02  1.05484417E-01  4.35148162E-16 -3.42643182E-15  1.23472282E+00
 -4.55055956E-03 -5.08365307E-01 -4.24280173E-16  9.27246536E-17  2.57023602E-01
 -4.92184191E-17  2.35166806E-16  1.01754651E+00 -1.92588564E-01 -9.33746334E-16
  4.50804138E-18  2.38867697E-16 -1.24332235E-01  2.35320610E-02 -1.05330974E-16
  3.56516847E-16 -2.13620567E-15  1.92529235E-01  1.01723305E+00  2.73492036E-15
 -7.93730242E-18 -6.03187222E-16 -2.32688568E-02 -1.22941589E-01  3.13872656E-16
  2.09067586E-02 -7.02274209E-01 -1.02656365E-16 -5.21784323E-17 -4.65451386E-01
  5.31552701E-02  1.46566266E+00  4.70043421E-16  2.96910153E-16 -2.96642703E-01
 -6.33954057E-17  2.25212756E-15 -4.43497991E-02 -2.34323277E-01  2.00079636E-15
 -5.41628573E-17 -1.87842507E-15  1.96196257E-01  1.03660785E+00  2.76682674E-15
 -8.64318462E-17  2.91684715E-15 -2.32958304E-01  4.40914539E-02  2.45206825E-15
 -1.24587458E-16 -3.28474341E-15  1.03644198E+00 -1.96164862E-01  3.07878146E-15
 -1.44479885E-02  1.01498007E+00  4.68441166E-16  2.58755249E-16  6.48022910E-01
 -2.34427565E-02 -7.19605938E-01 -1.93560044E-15 -1.14707259E-15  1.48344669E+00
 -5.71375606E-03  2.50127490E-01 -1.12626678E-17 -1.51032204E-18  1.48299709E-01
  1.03251365E+00 -4.82273299E-01  1.98198462E-16  1.15867449E-18  1.68016930E-01
Beta MO coefficients                       R   N=         100
  1.02197357E+00 -1.59987083E-01  6.68570078E-17  1.86677853E-16 -5.18310216E-02
 -1.54774030E-03  7.91267256E-02 -4.77343480E-16 -9.74245029E-16 -4.53644872E-02
 -1.54242220E-01  1.34467610E+00  1.45667148E-16  2.38456097E-15  5.07064726E-01
 -3.63079686E-03 -5.17233443E-01  2.39710067E-16 -3.24983371E-16  2.40734863E-01
  2.44262562E-02  1.05484417E-01  4.35148162E-16 -3.42643182E-15  1.23472282E+00
 -4.55055956E-03 -5.08365307E-01 -4.24280173E-16  9.27246536E-17  2.57023602E-01
 -4.92184191E-17  2.35166806E-16  1.01754651E+00 -1.92588564E-01 -9.33746334E-16
  4.50804138E-18  2.38867697E-16 -1.24332235E-01  2.35320610E-02 -1.05330974E-16
  3.56516847E-16 -2.13620567E-15  1.92529235E-01  1.01723305E+00  2.73492036E-15
 -7.93730242E-18 -6.03187222E-16 -2.32688568E-02 -1.22941589E-01  3.13872656E-16
  2.09067586E-02 -7.02274209E-01 -1.02656365E-16 -5.21784323E-17 -4.65451386E-01
  5.31552701E-02  1.46566266E+00  4.70043421E-16  2.96910153E-16 -2.96642703E-01
 -6.33954057E-17  2.25212756E-15 -4.43497991E-02 -2.34323277E-01  2.00079636E-15
 -5.41628573E-17 -1.87842507E-15  1.96196257E-01  1.03660785E+00  2.76682674E-15
 -8.64318462E-17  2.91684715E-15 -2.32958304E-01  4.40914539E-02  2.45206825E-15
 -1.24587458E-16 -3.28474341E-15  1.03644198E+00 -1.96164862E-01  3.07878146E-15
 -1.44479885E-02  1.01498007E+00  4.68441166E-16  2.58755249E-16  6.48022910E-01
 -2.34427565E-02 -7.19605938E-01 -1.93560044E-15 -1.14707259E-15  1.48344669E+00
 -5.71375606E-03  2.50127490E-01 -1.12626678E-17 -1.51032204E-18  1.48299709E-01
  1.03251365E+00 -4.82273299E-01  1.98198462E-16  1.15867449E-18  1.68016930E-01
Cartesian Gradient                         R   N=           6
  0.00000000E+00  0.00000000E+00  0.00000000E+00  0.00000000E+00  0.00000000E+00
  0.00000000E+00
