run                                                                     
SP        UHF                                                         Gen                 
Number of atoms                            I                2
Info1-9                                    I   N=           9
          32          32           0           0           0         110
           1           1           2
Charge                                     I                0
Multiplicity                               I                1
Number of electrons                        I               14
Number of alpha electrons                  I                7
Number of beta electrons                   I                7
Number of basis functions                  I               10
Number of independent functions            I               10
Number of point charges in /Mol/           I                0
Number of translation vectors              I                0
Atomic numbers                             I   N=           2
           1          13
Nuclear charges                            R   N=           2
  1.00000000E+00  1.30000000E+01
Current cartesian coordinates              R   N=           6
  0.00000000E+00  0.00000000E+00  0.00000000E+00  0.00000000E+00  0.00000000E+00
  1.88972613E+00
Force Field                                I                0
Int Atom Types                             I   N=           2
           0           0
MM charges                                 R   N=           2
  0.00000000E+00  0.00000000E+00
Integer atomic weights                     I   N=           2
          14          14
Real atomic weights                        R   N=           2
  1.40030740E+01  1.40030740E+01
Atom fragment info                         I   N=           2
           0           0
Atom residue num                           I   N=           2
           0           0
Nuclear spins                              I   N=           2
           2           2
Nuclear ZEff                               R   N=           2
 -1.00000000E+00 -1.15300000E+01
Nuclear ZNuc                               R   N=           2
  1.00000000E+00  1.30000000E+01
Nuclear QMom                               R   N=           2
  2.04400000E+00  2.04400000E+00
Nuclear GFac                               R   N=           2
  4.03761000E-01  4.03761000E-01
MicOpt                                     I   N=           2
          -1          -1
Number of contracted shells                I                4
Number of primitive shells                 I               12
Pure/Cartesian d shells                    I                0
Pure/Cartesian f shells                    I                0
Highest angular momentum                   I                1
Largest degree of contraction              I                3
Shell types                                I   N=           4
           0          -1           0          -1
Number of primitives per shell             I   N=           4
           3           3           3           3
Shell to atom map                          I   N=           4
           1           1           2           2
Primitive exponents                        R   N=          12
  9.91061690E+01  1.80523124E+01  4.88566024E+00  3.78045588E+00  8.78496645E-01
  2.85714374E-01  9.91061690E+01  1.80523124E+01  4.88566024E+00  3.78045588E+00
  8.78496645E-01  2.85714374E-01
Contraction coefficients                   R   N=          12
  1.54328967E-01  5.35328142E-01  4.44634542E-01 -9.99672292E-02  3.99512826E-01
  7.00115469E-01  1.54328967E-01  5.35328142E-01  4.44634542E-01 -9.99672292E-02
  3.99512826E-01  7.00115469E-01
P(S=P) Contraction coefficients            R   N=          12
  0.00000000E+00  0.00000000E+00  0.00000000E+00  1.55916275E-01  6.07683719E-01
  3.91957393E-01  0.00000000E+00  0.00000000E+00  0.00000000E+00  1.55916275E-01
  6.07683719E-01  3.91957393E-01
Coordinates of each shell                  R   N=          12
  0.00000000E+00  0.00000000E+00  0.00000000E+00  0.00000000E+00  0.00000000E+00
  0.00000000E+00  0.00000000E+00  0.00000000E+00  1.88972613E+00  0.00000000E+00
  0.00000000E+00  1.88972613E+00
Constraint Structure                       R   N=           6
  0.00000000E+00  0.00000000E+00  0.00000000E+00  0.00000000E+00  0.00000000E+00
  1.88972613E+00
Num ILSW                                   I              100
ILSW                                       I   N=         100
           1           0           0           0           2           0
           0           0           0           0           0          -1
           0           0           0           0           0           0
           0           0           1           0           0           0
           1           1           0           0           0           8
           0           0      100000           0          -1           0
           0           0           0           0           0           0
           0           0           0           1           0           0
           0           0           1           0           0           0
           0           0           4          41           0           0
           0           0           0           0           0           0
           0           0           0           0           0           0
           0           0           0           0           0           0
           0           0           0           0           0           0
           0           0           0           0           0           0
           0           0           0           0           0           0
           0           0           0           0
Num RLSW                                   I               41
RLSW                                       R   N=          41
  1.00000000E+00  1.00000000E+00  1.00000000E+00  1.00000000E+00  1.00000000E+00
  0.00000000E+00  0.00000000E+00  1.00000000E+00  0.00000000E+00  0.00000000E+00
  0.00000000E+00  0.00000000E+00  1.00000000E+00  0.00000000E+00  0.00000000E+00
  0.00000000E+00  0.00000000E+00  1.00000000E+00  0.00000000E+00  0.00000000E+00
  0.00000000E+00  0.00000000E+00  1.00000000E+00  0.00000000E+00  0.00000000E+00
  0.00000000E+00  0.00000000E+00  1.00000000E+00  0.00000000E+00  0.00000000E+00
  0.00000000E+00  0.00000000E+00  1.00000000E+00  0.00000000E+00  0.00000000E+00
  0.00000000E+00  0.00000000E+00  0.00000000E+00  1.00000000E+00  1.00000000E+00
  0.00000000E+00
MxBond                                     I                1
NBond                                      I   N=           2
           1           1
IBond                                      I   N=           2
           2           1
RBond                                      R   N=           2
  3.00000000E+00  3.00000000E+00
Virial Ratio                               R      3.586979435769498E+00
SCF Energy                                 R     -1.777826460177300E+02
Total Energy                               R     -1.777826460177300E+02
S**2                                       R     -8.881784197001252E-15
S**2 after annihilation                    R     -7.105427357600951E-15
RMS Density                                R      3.467835560340673E-10
External E-field                           R   N=          35
  0.00000000E+00  0.00000000E+00  0.00000000E+00  0.00000000E+00  0.00000000E+00
  0.00000000E+00  0.00000000E+00  0.00000000E+00  0.00000000E+00  0.00000000E+00
  0.00000000E+00  0.00000000E+00  0.00000000E+00  0.00000000E+00  0.00000000E+00
  0.00000000E+00  0.00000000E+00  0.00000000E+00  0.00000000E+00  0.00000000E+00
  0.00000000E+00  0.00000000E+00  0.00000000E+00  0.00000000E+00  0.00000000E+00
  0.00000000E+00  0.00000000E+00  0.00000000E+00  0.00000000E+00  0.00000000E+00
  0.00000000E+00  0.00000000E+00  0.00000000E+00  0.00000000E+00  0.00000000E+00
IOpCl                                      I                1
IROHF                                      I                0
Alpha Orbital Energies                     R   N=          10
 -5.07148639E+01 -3.63305402E+00 -3.19639881E+00 -2.85723323E+00 -2.83990726E+00
  2.02564676E-01  1.48895496E+00  2.05757035E+00  2.78638104E+00  1.90548214E+01
Beta Orbital Energies                      R   N=          10
 -5.07148639E+01 -3.63305402E+00 -3.19639881E+00 -2.85723323E+00 -2.83990726E+00
  2.02564676E-01  1.48895496E+00  2.05757035E+00  2.78638104E+00  1.90548214E+01
Alpha MO coefficients                      R   N=         100
 -1.54774030E-03  7.91267256E-02 -7.52258318E-16  8.46434603E-17  4.53644872E-02
  1.02197357E+00 -1.59987083E-01  1.32699469E-16 -6.63520849E-18  5.18310216E-02
 -3.63079685E-03 -5.17233442E-01 -9.72324458E-17  5.69245656E-17 -2.40734863E-01
 -1.54242220E-01  1.34467610E+00  3.08527762E-17 -1.74583645E-15 -5.07064726E-01
  4.55055956E-03  5.08365307E-01  2.34078860E-16 -6.22437846E-17  2.57023602E-01
 -2.44262562E-02 -1.05484417E-01  1.67406484E-16 -1.41742840E-15  1.23472282E+00
  2.12777069E-18 -1.71693560E-16 -1.26406644E-01  5.79853379E-03 -1.24911203E-16
  1.79678647E-17 -6.69512675E-19  1.03452366E+00 -4.74557368E-02 -3.24381168E-16
  3.96408527E-18  3.42860578E-17 -5.73367766E-03 -1.24992796E-01  1.27803945E-17
 -2.32813638E-16  1.60070915E-15  4.74411178E-02  1.03420497E+00  8.92657165E-16
  5.31552701E-02  1.46566266E+00 -3.74493376E-16 -7.84366277E-17  2.96642704E-01
  2.09067586E-02 -7.02274209E-01  8.74883679E-17  5.11799433E-18  4.65451386E-01
 -1.50694128E-18  8.33253024E-17  4.83447085E-02  1.05390303E+00  5.02473683E-16
 -7.68775896E-17 -3.48759783E-16 -1.09282314E-02 -2.38232820E-01  2.41564962E-16
  7.41671431E-17  2.78564534E-15  1.05373439E+00 -4.83369724E-02  3.71508640E-15
 -2.82640665E-17 -2.90056177E-15 -2.36845073E-01  1.08645726E-02  1.96512216E-15
  2.34427564E-02  7.19605937E-01 -3.03469259E-15 -3.41141282E-16  1.48344669E+00
  1.44479885E-02 -1.01498007E+00  6.45505840E-16  7.81121118E-17  6.48022910E-01
  1.03251365E+00 -4.82273299E-01  1.75211143E-16 -4.66137354E-18 -1.68016930E-01
 -5.71375606E-03  2.50127490E-01 -3.46950834E-18 -2.14381214E-19 -1.48299709E-01
Beta MO coefficients                       R   N=         100
 -1.54774030E-03  7.91267256E-02 -7.52258318E-16  8.46434603E-17  4.53644872E-02
  1.02197357E+00 -1.59987083E-01  1.32699469E-16 -6.63520849E-18  5.18310216E-02
 -3.63079685E-03 -5.17233442E-01 -9.72324458E-17  5.69245656E-17 -2.40734863E-01
 -1.54242220E-01  1.34467610E+00  3.08527762E-17 -1.74583645E-15 -5.07064726E-01
  4.55055956E-03  5.08365307E-01  2.34078860E-16 -6.22437846E-17  2.57023602E-01
 -2.44262562E-02 -1.05484417E-01  1.67406484E-16 -1.41742840E-15  1.23472282E+00
  2.12777069E-18 -1.71693560E-16 -1.26406644E-01  5.79853379E-03 -1.24911203E-16
  1.79678647E-17 -6.69512675E-19  1.03452366E+00 -4.74557368E-02 -3.24381168E-16
  3.96408527E-18  3.42860578E-17 -5.73367766E-03 -1.24992796E-01  1.27803945E-17
 -2.32813638E-16  1.60070915E-15  4.74411178E-02  1.03420497E+00  8.92657165E-16
  5.31552701E-02  1.46566266E+00 -3.74493376E-16 -7.84366277E-17  2.96642704E-01
  2.09067586E-02 -7.02274209E-01  8.74883679E-17  5.11799433E-18  4.65451386E-01
 -1.50694128E-18  8.33253024E-17  4.83447085E-02  1.05390303E+00  5.02473683E-16
 -7.68775896E-17 -3.48759783E-16 -1.09282314E-02 -2.38232820E-01  2.41564962E-16
  7.41671431E-17  2.78564534E-15  1.05373439E+00 -4.83369724E-02  3.71508640E-15
 -2.82640665E-17 -2.90056177E-15 -2.36845073E-01  1.08645726E-02  1.96512216E-15
  2.34427564E-02  7.19605937E-01 -3.03469259E-15 -3.41141282E-16  1.48344669E+00
  1.44479885E-02 -1.01498007E+00  6.45505840E-16  7.81121118E-17  6.48022910E-01
  1.03251365E+00 -4.82273299E-01  1.75211143E-16 -4.66137354E-18 -1.68016930E-01
 -5.71375606E-03  2.50127490E-01 -3.46950834E-18 -2.14381214E-19 -1.48299709E-01
Cartesian Gradient                         R   N=           6
  0.00000000E+00  0.00000000E+00  0.00000000E+00  0.00000000E+00  0.00000000E+00
  0.00000000E+00
