run                                                                     
SP        UHF                                                         Gen                 
Number of atoms                            I                2
Info1-9                                    I   N=           9
          32          32           0           0           0         110
           1           1           2
Charge                                     I                0
Multiplicity                               I                1
Number of electrons                        I               14
Number of alpha electrons                  I                7
Number of beta electrons                   I                7
Number of basis functions                  I               10
Number of independent functions            I               10
Number of point charges in /Mol/           I                0
Number of translation vectors              I                0
Atomic numbers                             I   N=           2
          11           3
Nuclear charges                            R   N=           2
  1.10000000E+01  3.00000000E+00
Current cartesian coordinates              R   N=           6
  0.00000000E+00  0.00000000E+00  0.00000000E+00  0.00000000E+00  0.00000000E+00
  1.88972613E+00
Force Field                                I                0
Int Atom Types                             I   N=           2
           0           0
MM charges                                 R   N=           2
  0.00000000E+00  0.00000000E+00
Integer atomic weights                     I   N=           2
          14          14
Real atomic weights                        R   N=           2
  1.40030740E+01  1.40030740E+01
Atom fragment info                         I   N=           2
           0           0
Atom residue num                           I   N=           2
           0           0
Nuclear spins                              I   N=           2
           2           2
Nuclear ZEff                               R   N=           2
 -1.00400000E+01 -1.35000000E+00
Nuclear ZNuc                               R   N=           2
  1.10000000E+01  3.00000000E+00
Nuclear QMom                               R   N=           2
  2.04400000E+00  2.04400000E+00
Nuclear GFac                               R   N=           2
  4.03761000E-01  4.03761000E-01
MicOpt                                     I   N=           2
          -1          -1
Number of contracted shells                I                4
Number of primitive shells                 I               12
Pure/Cartesian d shells                    I                0
Pure/Cartesian f shells                    I                0
Highest angular momentum                   I                1
Largest degree of contraction              I                3
Shell types                                I   N=           4
           0          -1           0          -1
Number of primitives per shell             I   N=           4
           3           3           3           3
Shell to atom map                          I   N=           4
           1           1           2           2
Primitive exponents                        R   N=          12
  9.91061690E+01  1.80523124E+01  4.88566024E+00  3.78045588E+00  8.78496645E-01
  2.85714374E-01  9.91061690E+01  1.80523124E+01  4.88566024E+00  3.78045588E+00
  8.78496645E-01  2.85714374E-01
Contraction coefficients                   R   N=          12
  1.54328967E-01  5.35328142E-01  4.44634542E-01 -9.99672292E-02  3.99512826E-01
  7.00115469E-01  1.54328967E-01  5.35328142E-01  4.44634542E-01 -9.99672292E-02
  3.99512826E-01  7.00115469E-01
P(S=P) Contraction coefficients            R   N=          12
  0.00000000E+00  0.00000000E+00  0.00000000E+00  1.55916275E-01  6.07683719E-01
  3.91957393E-01  0.00000000E+00  0.00000000E+00  0.00000000E+00  1.55916275E-01
  6.07683719E-01  3.91957393E-01
Coordinates of each shell                  R   N=          12
  0.00000000E+00  0.00000000E+00  0.00000000E+00  0.00000000E+00  0.00000000E+00
  0.00000000E+00  0.00000000E+00  0.00000000E+00  1.88972613E+00  0.00000000E+00
  0.00000000E+00  1.88972613E+00
Constraint Structure                       R   N=           6
  0.00000000E+00  0.00000000E+00  0.00000000E+00  0.00000000E+00  0.00000000E+00
  1.88972613E+00
Num ILSW                                   I              100
ILSW                                       I   N=         100
           1           0           0           0           2           0
           0           0           0           0           0          -1
           0           0           0           0           0           0
           0           0           1           0           0           0
           1           1           0           0           0           8
           0           0      100000           0          -1           0
           0           0           0           0           0           0
           0           0           0           1           0           0
           0           0           1           0           0           0
           0           0           4          41           0           0
           0           0           0           0           0           0
           0           0           0           0           0           0
           0           0           0           0           0           0
           0           0           0           0           0           0
           0           0           0           0           0           0
           0           0           0           0           0           0
           0           0           0           0
Num RLSW                                   I               41
RLSW                                       R   N=          41
  1.00000000E+00  1.00000000E+00  1.00000000E+00  1.00000000E+00  1.00000000E+00
  0.00000000E+00  0.00000000E+00  1.00000000E+00  0.00000000E+00  0.00000000E+00
  0.00000000E+00  0.00000000E+00  1.00000000E+00  0.00000000E+00  0.00000000E+00
  0.00000000E+00  0.00000000E+00  1.00000000E+00  0.00000000E+00  0.00000000E+00
  0.00000000E+00  0.00000000E+00  1.00000000E+00  0.00000000E+00  0.00000000E+00
  0.00000000E+00  0.00000000E+00  1.00000000E+00  0.00000000E+00  0.00000000E+00
  0.00000000E+00  0.00000000E+00  1.00000000E+00  0.00000000E+00  0.00000000E+00
  0.00000000E+00  0.00000000E+00  0.00000000E+00  1.00000000E+00  1.00000000E+00
  0.00000000E+00
MxBond                                     I                1
NBond                                      I   N=           2
           1           1
IBond                                      I   N=           2
           2           1
RBond                                      R   N=           2
  3.00000000E+00  3.00000000E+00
Virial Ratio                               R      2.965838055435101E+00
SCF Energy                                 R     -1.391314542584261E+02
Total Energy                               R     -1.391314542584261E+02
S**2                                       R     -1.065814103640150E-14
S**2 after annihilation                    R     -1.527666881884210E-13
RMS Density                                R      6.754439258564789E-09
External E-field                           R   N=          35
  0.00000000E+00  0.00000000E+00  0.00000000E+00  0.00000000E+00  0.00000000E+00
  0.00000000E+00  0.00000000E+00  0.00000000E+00  0.00000000E+00  0.00000000E+00
  0.00000000E+00  0.00000000E+00  0.00000000E+00  0.00000000E+00  0.00000000E+00
  0.00000000E+00  0.00000000E+00  0.00000000E+00  0.00000000E+00  0.00000000E+00
  0.00000000E+00  0.00000000E+00  0.00000000E+00  0.00000000E+00  0.00000000E+00
  0.00000000E+00  0.00000000E+00  0.00000000E+00  0.00000000E+00  0.00000000E+00
  0.00000000E+00  0.00000000E+00  0.00000000E+00  0.00000000E+00  0.00000000E+00
IOpCl                                      I                1
IROHF                                      I                0
Alpha Orbital Energies                     R   N=          10
 -3.83806523E+01 -2.70233680E+00 -2.03444372E+00 -1.81358251E+00 -1.79852494E+00
 -1.21042152E+00  5.38781136E-01  1.10566480E+00  1.68269403E+00  7.66059638E+00
Beta Orbital Energies                      R   N=          10
 -3.83806523E+01 -2.70233680E+00 -2.03444372E+00 -1.81358251E+00 -1.79852494E+00
 -1.21042152E+00  5.38781136E-01  1.10566480E+00  1.68269403E+00  7.66059638E+00
Alpha MO coefficients                      R   N=         100
  1.01916202E+00 -1.33958451E-01 -2.03566249E-16  6.76005320E-17 -4.28223405E-02
 -1.28189423E-03  6.60285488E-02  7.38026081E-16 -2.36905597E-16 -3.78255115E-02
 -1.59057473E-01  1.14267143E+00  1.12417214E-15 -6.06520658E-16  5.00106434E-01
  5.04463201E-02 -2.62009672E-01  3.47623599E-17 -1.72443731E-16  1.23272768E-01
  5.61673451E-02 -2.95178874E-01 -3.67628021E-15  2.11672360E-15  9.78611204E-01
  6.50228715E-02 -6.36256882E-02  3.07928710E-16 -8.08280746E-16  8.17097074E-02
 -9.46373171E-19 -1.74044967E-16  4.51728738E-01  9.19102889E-01 -3.31758667E-16
  7.59325315E-17  4.63672019E-16 -3.51854534E-02 -7.15895383E-02 -1.03006672E-16
  3.53540823E-16 -2.11901200E-15  9.17680121E-01 -4.51029464E-01  3.05434716E-15
  2.10815104E-16  1.28976769E-16 -6.63090011E-02  3.25901287E-02  2.85588697E-16
  4.01313455E-02 -8.12238457E-01 -1.78645178E-16 -2.47114090E-16 -7.83475762E-01
  2.53705349E-01  1.46170239E+00  2.31454238E-18  2.98694927E-16 -3.01608450E-01
 -1.86619948E-16  1.59209057E-15 -2.58774962E-01  1.27184985E-01  7.55202942E-16
 -9.34524237E-17 -8.70795860E-16  9.51159504E-01 -4.67484205E-01  1.94120389E-15
  4.68109461E-17  1.44610402E-15 -1.24678566E-01 -2.53675316E-01  1.17182632E-15
 -1.15887666E-16 -1.07433616E-15  4.67296032E-01  9.50776642E-01  1.74872594E-15
 -2.43155701E-02  1.07503777E+00  4.52455265E-16  1.85086585E-16  7.35909267E-01
 -8.45264640E-02 -7.39610521E-01 -1.66398304E-15 -7.17397453E-16  1.49343523E+00
 -1.21948061E-02  4.52330711E-01 -6.97544404E-19 -1.38491613E-17  2.79098915E-01
  9.95595393E-01 -8.18632615E-01  7.63437237E-18  2.56350226E-17  3.13517375E-01
Beta MO coefficients                       R   N=         100
  1.01916202E+00 -1.33958451E-01 -2.03566249E-16  6.76005320E-17 -4.28223405E-02
 -1.28189423E-03  6.60285488E-02  7.38026081E-16 -2.36905597E-16 -3.78255115E-02
 -1.59057473E-01  1.14267143E+00  1.12417214E-15 -6.06520658E-16  5.00106434E-01
  5.04463201E-02 -2.62009672E-01  3.47623599E-17 -1.72443731E-16  1.23272768E-01
  5.61673451E-02 -2.95178874E-01 -3.67628021E-15  2.11672360E-15  9.78611204E-01
  6.50228715E-02 -6.36256882E-02  3.07928710E-16 -8.08280746E-16  8.17097074E-02
 -9.46373171E-19 -1.74044967E-16  4.51728738E-01  9.19102889E-01 -3.31758667E-16
  7.59325315E-17  4.63672019E-16 -3.51854534E-02 -7.15895383E-02 -1.03006672E-16
  3.53540823E-16 -2.11901200E-15  9.17680121E-01 -4.51029464E-01  3.05434716E-15
  2.10815104E-16  1.28976769E-16 -6.63090011E-02  3.25901287E-02  2.85588697E-16
  4.01313455E-02 -8.12238457E-01 -1.78645178E-16 -2.47114090E-16 -7.83475762E-01
  2.53705349E-01  1.46170239E+00  2.31454238E-18  2.98694927E-16 -3.01608450E-01
 -1.86619948E-16  1.59209057E-15 -2.58774962E-01  1.27184985E-01  7.55202942E-16
 -9.34524237E-17 -8.70795860E-16  9.51159504E-01 -4.67484205E-01  1.94120389E-15
  4.68109461E-17  1.44610402E-15 -1.24678566E-01 -2.53675316E-01  1.17182632E-15
 -1.15887666E-16 -1.07433616E-15  4.67296032E-01  9.50776642E-01  1.74872594E-15
 -2.43155701E-02  1.07503777E+00  4.52455265E-16  1.85086585E-16  7.35909267E-01
 -8.45264640E-02 -7.39610521E-01 -1.66398304E-15 -7.17397453E-16  1.49343523E+00
 -1.21948061E-02  4.52330711E-01 -6.97544404E-19 -1.38491613E-17  2.79098915E-01
  9.95595393E-01 -8.18632615E-01  7.63437237E-18  2.56350226E-17  3.13517375E-01
Cartesian Gradient                         R   N=           6
  0.00000000E+00  0.00000000E+00  0.00000000E+00  0.00000000E+00  0.00000000E+00
  0.00000000E+00
