run                                                                     
SP        UHF                                                         Gen                 
Number of atoms                            I                2
Info1-9                                    I   N=           9
          32          32           0           0           0         110
           1           1           2
Charge                                     I                0
Multiplicity                               I                1
Number of electrons                        I               14
Number of alpha electrons                  I                7
Number of beta electrons                   I                7
Number of basis functions                  I               10
Number of independent functions            I               10
Number of point charges in /Mol/           I                0
Number of translation vectors              I                0
Atomic numbers                             I   N=           2
          12           2
Nuclear charges                            R   N=           2
  1.20000000E+01  2.00000000E+00
Current cartesian coordinates              R   N=           6
  0.00000000E+00  0.00000000E+00  0.00000000E+00  0.00000000E+00  0.00000000E+00
  1.88972613E+00
Force Field                                I                0
Int Atom Types                             I   N=           2
           0           0
MM charges                                 R   N=           2
  0.00000000E+00  0.00000000E+00
Integer atomic weights                     I   N=           2
          14          14
Real atomic weights                        R   N=           2
  1.40030740E+01  1.40030740E+01
Atom fragment info                         I   N=           2
           0           0
Atom residue num                           I   N=           2
           0           0
Nuclear spins                              I   N=           2
           2           2
Nuclear ZEff                               R   N=           2
 -1.08000000E+01 -2.00000000E+00
Nuclear ZNuc                               R   N=           2
  1.20000000E+01  2.00000000E+00
Nuclear QMom                               R   N=           2
  2.04400000E+00  2.04400000E+00
Nuclear GFac                               R   N=           2
  4.03761000E-01  4.03761000E-01
MicOpt                                     I   N=           2
          -1          -1
Number of contracted shells                I                4
Number of primitive shells                 I               12
Pure/Cartesian d shells                    I                0
Pure/Cartesian f shells                    I                0
Highest angular momentum                   I                1
Largest degree of contraction              I                3
Shell types                                I   N=           4
           0          -1           0          -1
Number of primitives per shell             I   N=           4
           3           3           3           3
Shell to atom map                          I   N=           4
           1           1           2           2
Primitive exponents                        R   N=          12
  9.91061690E+01  1.80523124E+01  4.88566024E+00  3.78045588E+00  8.78496645E-01
  2.85714374E-01  9.91061690E+01  1.80523124E+01  4.88566024E+00  3.78045588E+00
  8.78496645E-01  2.85714374E-01
Contraction coefficients                   R   N=          12
  1.54328967E-01  5.35328142E-01  4.44634542E-01 -9.99672292E-02  3.99512826E-01
  7.00115469E-01  1.54328967E-01  5.35328142E-01  4.44634542E-01 -9.99672292E-02
  3.99512826E-01  7.00115469E-01
P(S=P) Contraction coefficients            R   N=          12
  0.00000000E+00  0.00000000E+00  0.00000000E+00  1.55916275E-01  6.07683719E-01
  3.91957393E-01  0.00000000E+00  0.00000000E+00  0.00000000E+00  1.55916275E-01
  6.07683719E-01  3.91957393E-01
Coordinates of each shell                  R   N=          12
  0.00000000E+00  0.00000000E+00  0.00000000E+00  0.00000000E+00  0.00000000E+00
  0.00000000E+00  0.00000000E+00  0.00000000E+00  1.88972613E+00  0.00000000E+00
  0.00000000E+00  1.88972613E+00
Constraint Structure                       R   N=           6
  0.00000000E+00  0.00000000E+00  0.00000000E+00  0.00000000E+00  0.00000000E+00
  1.88972613E+00
Num ILSW                                   I              100
ILSW                                       I   N=         100
           1           0           0           0           2           0
           0           0           0           0           0          -1
           0           0           0           0           0           0
           0           0           1           0           0           0
           1           1           0           0           0           8
           0           0      100000           0          -1           0
           0           0           0           0           0           0
           0           0           0           1           0           0
           0           0           1           0           0           0
           0           0           4          41           0           0
           0           0           0           0           0           0
           0           0           0           0           0           0
           0           0           0           0           0           0
           0           0           0           0           0           0
           0           0           0           0           0           0
           0           0           0           0           0           0
           0           0           0           0
Num RLSW                                   I               41
RLSW                                       R   N=          41
  1.00000000E+00  1.00000000E+00  1.00000000E+00  1.00000000E+00  1.00000000E+00
  0.00000000E+00  0.00000000E+00  1.00000000E+00  0.00000000E+00  0.00000000E+00
  0.00000000E+00  0.00000000E+00  1.00000000E+00  0.00000000E+00  0.00000000E+00
  0.00000000E+00  0.00000000E+00  1.00000000E+00  0.00000000E+00  0.00000000E+00
  0.00000000E+00  0.00000000E+00  1.00000000E+00  0.00000000E+00  0.00000000E+00
  0.00000000E+00  0.00000000E+00  1.00000000E+00  0.00000000E+00  0.00000000E+00
  0.00000000E+00  0.00000000E+00  1.00000000E+00  0.00000000E+00  0.00000000E+00
  0.00000000E+00  0.00000000E+00  0.00000000E+00  1.00000000E+00  1.00000000E+00
  0.00000000E+00
MxBond                                     I                1
NBond                                      I   N=           2
           1           1
IBond                                      I   N=           2
           2           1
RBond                                      R   N=           2
  3.00000000E+00  3.00000000E+00
Virial Ratio                               R      3.288144667771950E+00
SCF Energy                                 R     -1.576540562023296E+02
Total Energy                               R     -1.576540562023296E+02
S**2                                       R      5.329070518200751E-15
S**2 after annihilation                    R      9.148237722911282E-14
RMS Density                                R      2.114678045111549E-09
External E-field                           R   N=          35
  0.00000000E+00  0.00000000E+00  0.00000000E+00  0.00000000E+00  0.00000000E+00
  0.00000000E+00  0.00000000E+00  0.00000000E+00  0.00000000E+00  0.00000000E+00
  0.00000000E+00  0.00000000E+00  0.00000000E+00  0.00000000E+00  0.00000000E+00
  0.00000000E+00  0.00000000E+00  0.00000000E+00  0.00000000E+00  0.00000000E+00
  0.00000000E+00  0.00000000E+00  0.00000000E+00  0.00000000E+00  0.00000000E+00
  0.00000000E+00  0.00000000E+00  0.00000000E+00  0.00000000E+00  0.00000000E+00
  0.00000000E+00  0.00000000E+00  0.00000000E+00  0.00000000E+00  0.00000000E+00
IOpCl                                      I                1
IROHF                                      I                0
Alpha Orbital Energies                     R   N=          10
 -4.45427925E+01 -3.15203991E+00 -2.59354738E+00 -2.33546774E+00 -2.31880714E+00
 -4.38499715E-01  9.87745797E-01  1.55589085E+00  2.20689406E+00  1.31311011E+01
Beta Orbital Energies                      R   N=          10
 -4.45427925E+01 -3.15203991E+00 -2.59354738E+00 -2.33546774E+00 -2.31880714E+00
 -4.38499715E-01  9.87745797E-01  1.55589085E+00  2.20689406E+00  1.31311011E+01
Alpha MO coefficients                      R   N=         100
  1.02079386E+00 -1.48723739E-01 -9.54391200E-19  6.27536357E-17 -4.79183426E-02
 -1.43192900E-03  7.34441375E-02 -7.21601350E-17 -2.90952724E-16 -4.20858370E-02
 -1.58860593E-01  1.29162863E+00  1.24667938E-15 -1.72768549E-15  5.17405108E-01
  3.86698107E-03 -4.53178337E-01 -1.01350695E-15 -4.45693565E-16  2.02599343E-01
  3.29979205E-02 -2.77529161E-03 -4.70154511E-17 -2.33342497E-15  1.17665822E+00
  3.81467105E-03 -4.04797397E-01 -5.56991836E-16 -1.35583822E-16  2.02552177E-01
  3.70188180E-17  2.79396405E-17  8.95066940E-01  5.13054652E-01  1.44506534E-15
  1.05716651E-17 -5.14426505E-16 -9.51177665E-02 -5.45217463E-02  2.37973325E-16
 -1.95525454E-16  2.02607064E-15 -5.12730857E-01  8.94502052E-01  2.83862887E-15
  1.76089131E-17 -1.37757288E-15  5.31795376E-02 -9.27761706E-02  6.60793977E-16
  2.73141095E-02 -7.35931732E-01 -1.63472666E-17 -5.55222490E-17 -5.28632976E-01
  1.20774707E-01  1.46682279E+00  1.44283502E-16  2.46785503E-16 -2.89817231E-01
  2.20676266E-16 -2.47973787E-16  1.27446349E-01 -2.22340863E-01 -1.11915565E-16
  1.25333225E-18  1.39761621E-16 -5.25649542E-01  9.17039782E-01 -2.73822127E-16
  4.43423783E-17  2.00464438E-16 -2.20055795E-01 -1.26136543E-01  1.08663021E-16
 -8.29841198E-17 -5.55047313E-16  9.16799864E-01  5.25512020E-01  4.69578919E-16
 -1.86486200E-02  1.04987109E+00  1.60724734E-17 -3.14151708E-17  6.88577755E-01
 -4.11362677E-02 -7.47446137E-01 -1.22623241E-16  7.55818895E-17  1.49360644E+00
 -7.50135827E-03  3.10738204E-01 -1.82321148E-17 -1.94529374E-17  1.86526372E-01
  1.02624826E+00 -5.88169713E-01  1.72691475E-16  1.61070374E-16  2.10270493E-01
Beta MO coefficients                       R   N=         100
  1.02079386E+00 -1.48723739E-01 -9.54391200E-19  6.27536357E-17 -4.79183426E-02
 -1.43192900E-03  7.34441375E-02 -7.21601350E-17 -2.90952724E-16 -4.20858370E-02
 -1.58860593E-01  1.29162863E+00  1.24667938E-15 -1.72768549E-15  5.17405108E-01
  3.86698107E-03 -4.53178337E-01 -1.01350695E-15 -4.45693565E-16  2.02599343E-01
  3.29979205E-02 -2.77529161E-03 -4.70154511E-17 -2.33342497E-15  1.17665822E+00
  3.81467105E-03 -4.04797397E-01 -5.56991836E-16 -1.35583822E-16  2.02552177E-01
  3.70188180E-17  2.79396405E-17  8.95066940E-01  5.13054652E-01  1.44506534E-15
  1.05716651E-17 -5.14426505E-16 -9.51177665E-02 -5.45217463E-02  2.37973325E-16
 -1.95525454E-16  2.02607064E-15 -5.12730857E-01  8.94502052E-01  2.83862887E-15
  1.76089131E-17 -1.37757288E-15  5.31795376E-02 -9.27761706E-02  6.60793977E-16
  2.73141095E-02 -7.35931732E-01 -1.63472666E-17 -5.55222490E-17 -5.28632976E-01
  1.20774707E-01  1.46682279E+00  1.44283502E-16  2.46785503E-16 -2.89817231E-01
  2.20676266E-16 -2.47973787E-16  1.27446349E-01 -2.22340863E-01 -1.11915565E-16
  1.25333225E-18  1.39761621E-16 -5.25649542E-01  9.17039782E-01 -2.73822127E-16
  4.43423783E-17  2.00464438E-16 -2.20055795E-01 -1.26136543E-01  1.08663021E-16
 -8.29841198E-17 -5.55047313E-16  9.16799864E-01  5.25512020E-01  4.69578919E-16
 -1.86486200E-02  1.04987109E+00  1.60724734E-17 -3.14151708E-17  6.88577755E-01
 -4.11362677E-02 -7.47446137E-01 -1.22623241E-16  7.55818895E-17  1.49360644E+00
 -7.50135827E-03  3.10738204E-01 -1.82321148E-17 -1.94529374E-17  1.86526372E-01
  1.02624826E+00 -5.88169713E-01  1.72691475E-16  1.61070374E-16  2.10270493E-01
Total SCF Density                          R   N=          55
  2.13818344E+00 -7.54396135E-01  4.46405295E+00 -7.90194928E-17  1.15425044E-15
  2.16056066E+00  1.10068722E-16 -6.23461715E-16 -5.55141544E-02  2.22558891E+00
 -2.13443794E-01  2.12238811E+00  8.44237929E-16 -6.15545751E-16  3.86796320E+00
  2.69742910E-03 -1.67369722E-01  6.52402946E-18 -2.96266791E-18 -1.14575035E-01
  2.92361711E-02  3.47341980E-01 -3.34923801E+00 -6.12589835E-16  2.46872355E-16
 -2.97943038E+00  3.47506650E-01  5.05238936E+00 -1.14020767E-16 -2.33508881E-15
 -3.58791346E-01  2.31283931E-01 -2.36052794E-15  2.15144804E-17  1.58662722E-15
  5.76365787E-01 -1.08843637E-17 -2.26107242E-15  2.31283931E-01 -6.29713054E-01
 -1.90286511E-15  5.38413131E-17  1.76300962E-15 -9.63578697E-01  1.70508400E+00
 -1.52756630E-01  9.61331660E-01  1.74252381E-16 -7.03225019E-17  9.96768496E-01
 -6.67724190E-02 -1.20401541E+00 -4.00989949E-16 -1.00484833E-15  3.35678247E-01
Spin SCF Density                           R   N=          55
  0.00000000E+00  0.00000000E+00  0.00000000E+00  0.00000000E+00  0.00000000E+00
  0.00000000E+00  0.00000000E+00  0.00000000E+00  0.00000000E+00  0.00000000E+00
  0.00000000E+00  0.00000000E+00  0.00000000E+00  0.00000000E+00  0.00000000E+00
  0.00000000E+00  0.00000000E+00  0.00000000E+00  0.00000000E+00  0.00000000E+00
  0.00000000E+00  0.00000000E+00  0.00000000E+00  0.00000000E+00  0.00000000E+00
  0.00000000E+00  0.00000000E+00  0.00000000E+00  0.00000000E+00  0.00000000E+00
  0.00000000E+00  0.00000000E+00  0.00000000E+00  0.00000000E+00  0.00000000E+00
  0.00000000E+00  0.00000000E+00  0.00000000E+00  0.00000000E+00  0.00000000E+00
  0.00000000E+00  0.00000000E+00  0.00000000E+00  0.00000000E+00  0.00000000E+00
  0.00000000E+00  0.00000000E+00  0.00000000E+00  0.00000000E+00  0.00000000E+00
  0.00000000E+00  0.00000000E+00  0.00000000E+00  0.00000000E+00  0.00000000E+00
Mulliken Charges                           R   N=           2
  1.68019097E+00 -1.68019097E+00
Cartesian Gradient                         R   N=           6
  0.00000000E+00  0.00000000E+00  0.00000000E+00  0.00000000E+00  0.00000000E+00
  0.00000000E+00
Dipole Moment                              R   N=           3
 -4.15749269E-16  8.41023472E-16 -3.20371694E+00
Quadrupole Moment                          R   N=           6
  2.52706588E+00  1.76658814E+00 -4.29365401E+00  6.49214427E-01 -2.34093181E-16
 -1.31143939E-16
Anisotropic Hyperfine tensors              R   N=          12
  0.00000000E+00  0.00000000E+00  0.00000000E+00  0.00000000E+00  0.00000000E+00
  0.00000000E+00  0.00000000E+00  0.00000000E+00  0.00000000E+00  0.00000000E+00
  0.00000000E+00  0.00000000E+00
Isotropic Hyperfine splittings             R   N=           2
  0.00000000E+00  0.00000000E+00
QEq coupling tensors                       R   N=          12
 -6.40005119E-01 -1.20507769E-01 -4.98844554E-01 -9.77982630E-16 -5.23226438E-16
  1.13884967E+00  4.10193548E-01 -2.56234007E+00  3.41167119E+00  1.75171679E-15
 -9.93063574E-16 -3.82186474E+00
