run                                                                     
SP        UHF                                                         Gen                 
Number of atoms                            I                2
Info1-9                                    I   N=           9
          32          32           0           0           0         110
           1           1           2
Charge                                     I                0
Multiplicity                               I                1
Number of electrons                        I               14
Number of alpha electrons                  I                7
Number of beta electrons                   I                7
Number of basis functions                  I               10
Number of independent functions            I               10
Number of point charges in /Mol/           I                0
Number of translation vectors              I                0
Atomic numbers                             I   N=           2
           2          12
Nuclear charges                            R   N=           2
  2.00000000E+00  1.20000000E+01
Current cartesian coordinates              R   N=           6
  0.00000000E+00  0.00000000E+00  0.00000000E+00  0.00000000E+00  0.00000000E+00
  1.88972613E+00
Force Field                                I                0
Int Atom Types                             I   N=           2
           0           0
MM charges                                 R   N=           2
  0.00000000E+00  0.00000000E+00
Integer atomic weights                     I   N=           2
          14          14
Real atomic weights                        R   N=           2
  1.40030740E+01  1.40030740E+01
Atom fragment info                         I   N=           2
           0           0
Atom residue num                           I   N=           2
           0           0
Nuclear spins                              I   N=           2
           2           2
Nuclear ZEff                               R   N=           2
 -2.00000000E+00 -1.08000000E+01
Nuclear ZNuc                               R   N=           2
  2.00000000E+00  1.20000000E+01
Nuclear QMom                               R   N=           2
  2.04400000E+00  2.04400000E+00
Nuclear GFac                               R   N=           2
  4.03761000E-01  4.03761000E-01
MicOpt                                     I   N=           2
          -1          -1
Number of contracted shells                I                4
Number of primitive shells                 I               12
Pure/Cartesian d shells                    I                0
Pure/Cartesian f shells                    I                0
Highest angular momentum                   I                1
Largest degree of contraction              I                3
Shell types                                I   N=           4
           0          -1           0          -1
Number of primitives per shell             I   N=           4
           3           3           3           3
Shell to atom map                          I   N=           4
           1           1           2           2
Primitive exponents                        R   N=          12
  9.91061690E+01  1.80523124E+01  4.88566024E+00  3.78045588E+00  8.78496645E-01
  2.85714374E-01  9.91061690E+01  1.80523124E+01  4.88566024E+00  3.78045588E+00
  8.78496645E-01  2.85714374E-01
Contraction coefficients                   R   N=          12
  1.54328967E-01  5.35328142E-01  4.44634542E-01 -9.99672292E-02  3.99512826E-01
  7.00115469E-01  1.54328967E-01  5.35328142E-01  4.44634542E-01 -9.99672292E-02
  3.99512826E-01  7.00115469E-01
P(S=P) Contraction coefficients            R   N=          12
  0.00000000E+00  0.00000000E+00  0.00000000E+00  1.55916275E-01  6.07683719E-01
  3.91957393E-01  0.00000000E+00  0.00000000E+00  0.00000000E+00  1.55916275E-01
  6.07683719E-01  3.91957393E-01
Coordinates of each shell                  R   N=          12
  0.00000000E+00  0.00000000E+00  0.00000000E+00  0.00000000E+00  0.00000000E+00
  0.00000000E+00  0.00000000E+00  0.00000000E+00  1.88972613E+00  0.00000000E+00
  0.00000000E+00  1.88972613E+00
Constraint Structure                       R   N=           6
  0.00000000E+00  0.00000000E+00  0.00000000E+00  0.00000000E+00  0.00000000E+00
  1.88972613E+00
Num ILSW                                   I              100
ILSW                                       I   N=         100
           1           0           0           0           2           0
           0           0           0           0           0          -1
           0           0           0           0           0           0
           0           0           1           0           0           0
           1           1           0           0           0           8
           0           0      100000           0          -1           0
           0           0           0           0           0           0
           0           0           0           1           0           0
           0           0           1           0           0           0
           0           0           4          41           0           0
           0           0           0           0           0           0
           0           0           0           0           0           0
           0           0           0           0           0           0
           0           0           0           0           0           0
           0           0           0           0           0           0
           0           0           0           0           0           0
           0           0           0           0
Num RLSW                                   I               41
RLSW                                       R   N=          41
  1.00000000E+00  1.00000000E+00  1.00000000E+00  1.00000000E+00  1.00000000E+00
  0.00000000E+00  0.00000000E+00  1.00000000E+00  0.00000000E+00  0.00000000E+00
  0.00000000E+00  0.00000000E+00  1.00000000E+00  0.00000000E+00  0.00000000E+00
  0.00000000E+00  0.00000000E+00  1.00000000E+00  0.00000000E+00  0.00000000E+00
  0.00000000E+00  0.00000000E+00  1.00000000E+00  0.00000000E+00  0.00000000E+00
  0.00000000E+00  0.00000000E+00  1.00000000E+00  0.00000000E+00  0.00000000E+00
  0.00000000E+00  0.00000000E+00  1.00000000E+00  0.00000000E+00  0.00000000E+00
  0.00000000E+00  0.00000000E+00  0.00000000E+00  1.00000000E+00  1.00000000E+00
  0.00000000E+00
MxBond                                     I                1
NBond                                      I   N=           2
           1           1
IBond                                      I   N=           2
           2           1
RBond                                      R   N=           2
  3.00000000E+00  3.00000000E+00
Virial Ratio                               R      3.288144667764694E+00
SCF Energy                                 R     -1.576540562023295E+02
Total Energy                               R     -1.576540562023295E+02
S**2                                       R      3.552713678800501E-15
S**2 after annihilation                    R      9.148237722911282E-14
RMS Density                                R      2.151135374571094E-09
External E-field                           R   N=          35
  0.00000000E+00  0.00000000E+00  0.00000000E+00  0.00000000E+00  0.00000000E+00
  0.00000000E+00  0.00000000E+00  0.00000000E+00  0.00000000E+00  0.00000000E+00
  0.00000000E+00  0.00000000E+00  0.00000000E+00  0.00000000E+00  0.00000000E+00
  0.00000000E+00  0.00000000E+00  0.00000000E+00  0.00000000E+00  0.00000000E+00
  0.00000000E+00  0.00000000E+00  0.00000000E+00  0.00000000E+00  0.00000000E+00
  0.00000000E+00  0.00000000E+00  0.00000000E+00  0.00000000E+00  0.00000000E+00
  0.00000000E+00  0.00000000E+00  0.00000000E+00  0.00000000E+00  0.00000000E+00
IOpCl                                      I                1
IROHF                                      I                0
Alpha Orbital Energies                     R   N=          10
 -4.45427925E+01 -3.15203991E+00 -2.59354738E+00 -2.33546774E+00 -2.31880714E+00
 -4.38499715E-01  9.87745796E-01  1.55589085E+00  2.20689406E+00  1.31311011E+01
Beta Orbital Energies                      R   N=          10
 -4.45427925E+01 -3.15203991E+00 -2.59354738E+00 -2.33546774E+00 -2.31880714E+00
 -4.38499715E-01  9.87745796E-01  1.55589085E+00  2.20689406E+00  1.31311011E+01
Alpha MO coefficients                      R   N=         100
 -1.43192900E-03  7.34441375E-02  7.35268596E-16 -1.99862676E-16  4.20858370E-02
  1.02079386E+00 -1.48723739E-01 -1.76830856E-16 -3.05083876E-17  4.79183426E-02
  3.86698106E-03 -4.53178337E-01 -5.72553134E-16  5.21881459E-16 -2.02599343E-01
 -1.58860593E-01  1.29162863E+00  2.03461877E-15 -5.94328741E-16 -5.17405108E-01
 -3.81467104E-03  4.04797397E-01  1.80323819E-16 -2.27145568E-16  2.02552177E-01
 -3.29979205E-02  2.77529142E-03  1.81311497E-15  3.44038550E-16  1.17665822E+00
  1.37354243E-18 -2.85600980E-16 -2.38901166E-02 -1.07001274E-01 -1.38264215E-16
  1.89043864E-17  6.17866561E-17  2.24808197E-01  1.00689184E+00 -7.66761104E-16
  5.11340346E-18  1.92733544E-17 -1.04367132E-01  2.33019931E-02 -1.82573187E-17
  2.89400294E-16 -1.92354188E-15  1.00625638E+00 -2.24666318E-01 -1.21110391E-15
  1.20774707E-01  1.46682279E+00 -1.08096341E-15  2.65722911E-17  2.89817231E-01
  2.73141095E-02 -7.35931732E-01  2.52095418E-16 -8.93088941E-18  5.28632976E-01
  8.95936057E-17  5.94583776E-16  1.03160985E+00 -2.30326974E-01 -1.18601476E-15
  4.73112505E-17  3.24494487E-16 -2.50118947E-01  5.58439221E-02 -4.19624049E-16
  1.14866012E-16  1.27101411E-15  2.30266716E-01  1.03133996E+00  2.41609965E-15
 -4.36552544E-17 -1.54215581E-15 -5.52699964E-02 -2.47548395E-01  1.02872960E-15
  4.11362677E-02  7.47446137E-01  5.19939520E-16 -2.26918615E-15  1.49360644E+00
  1.86486200E-02 -1.04987109E+00 -1.33545374E-16  5.45035008E-16  6.88577755E-01
  1.02624826E+00 -5.88169713E-01 -1.46743809E-16 -2.36659819E-16 -2.10270493E-01
 -7.50135827E-03  3.10738204E-01  3.47727033E-17  5.59337857E-17 -1.86526372E-01
Beta MO coefficients                       R   N=         100
 -1.43192900E-03  7.34441375E-02  7.35268596E-16 -1.99862676E-16  4.20858370E-02
  1.02079386E+00 -1.48723739E-01 -1.76830856E-16 -3.05083876E-17  4.79183426E-02
  3.86698106E-03 -4.53178337E-01 -5.72553134E-16  5.21881459E-16 -2.02599343E-01
 -1.58860593E-01  1.29162863E+00  2.03461877E-15 -5.94328741E-16 -5.17405108E-01
 -3.81467104E-03  4.04797397E-01  1.80323819E-16 -2.27145568E-16  2.02552177E-01
 -3.29979205E-02  2.77529142E-03  1.81311497E-15  3.44038550E-16  1.17665822E+00
  1.37354243E-18 -2.85600980E-16 -2.38901166E-02 -1.07001274E-01 -1.38264215E-16
  1.89043864E-17  6.17866561E-17  2.24808197E-01  1.00689184E+00 -7.66761104E-16
  5.11340346E-18  1.92733544E-17 -1.04367132E-01  2.33019931E-02 -1.82573187E-17
  2.89400294E-16 -1.92354188E-15  1.00625638E+00 -2.24666318E-01 -1.21110391E-15
  1.20774707E-01  1.46682279E+00 -1.08096341E-15  2.65722911E-17  2.89817231E-01
  2.73141095E-02 -7.35931732E-01  2.52095418E-16 -8.93088941E-18  5.28632976E-01
  8.95936057E-17  5.94583776E-16  1.03160985E+00 -2.30326974E-01 -1.18601476E-15
  4.73112505E-17  3.24494487E-16 -2.50118947E-01  5.58439221E-02 -4.19624049E-16
  1.14866012E-16  1.27101411E-15  2.30266716E-01  1.03133996E+00  2.41609965E-15
 -4.36552544E-17 -1.54215581E-15 -5.52699964E-02 -2.47548395E-01  1.02872960E-15
  4.11362677E-02  7.47446137E-01  5.19939520E-16 -2.26918615E-15  1.49360644E+00
  1.86486200E-02 -1.04987109E+00 -1.33545374E-16  5.45035008E-16  6.88577755E-01
  1.02624826E+00 -5.88169713E-01 -1.46743809E-16 -2.36659819E-16 -2.10270493E-01
 -7.50135827E-03  3.10738204E-01  3.47727033E-17  5.59337857E-17 -1.86526372E-01
Cartesian Gradient                         R   N=           6
  0.00000000E+00  0.00000000E+00  0.00000000E+00  0.00000000E+00  0.00000000E+00
  0.00000000E+00
