run                                                                     
SP        UHF                                                         Gen                 
Number of atoms                            I                2
Info1-9                                    I   N=           9
          32          32           0           0           0         110
           1           1           2
Charge                                     I                0
Multiplicity                               I                1
Number of electrons                        I               14
Number of alpha electrons                  I                7
Number of beta electrons                   I                7
Number of basis functions                  I               10
Number of independent functions            I               10
Number of point charges in /Mol/           I                0
Number of translation vectors              I                0
Atomic numbers                             I   N=           2
           7           7
Nuclear charges                            R   N=           2
  7.00000000E+00  7.05000000E+00
Current cartesian coordinates              R   N=           6
  0.00000000E+00  0.00000000E+00  0.00000000E+00  0.00000000E+00  0.00000000E+00
  1.88972613E+00
Force Field                                I                0
Int Atom Types                             I   N=           2
           0           0
MM charges                                 R   N=           2
  0.00000000E+00  0.00000000E+00
Integer atomic weights                     I   N=           2
          14          14
Real atomic weights                        R   N=           2
  1.40030740E+01  1.40030740E+01
Atom fragment info                         I   N=           2
           0           0
Atom residue num                           I   N=           2
           0           0
Nuclear spins                              I   N=           2
           2           2
Nuclear ZEff                               R   N=           2
 -4.55000000E+00 -4.55000000E+00
Nuclear ZNuc                               R   N=           2
  7.00000000E+00  7.00000000E+00
Nuclear QMom                               R   N=           2
  2.04400000E+00  2.04400000E+00
Nuclear GFac                               R   N=           2
  4.03761000E-01  4.03761000E-01
MicOpt                                     I   N=           2
          -1          -1
Number of contracted shells                I                4
Number of primitive shells                 I               12
Pure/Cartesian d shells                    I                0
Pure/Cartesian f shells                    I                0
Highest angular momentum                   I                1
Largest degree of contraction              I                3
Shell types                                I   N=           4
           0          -1           0          -1
Number of primitives per shell             I   N=           4
           3           3           3           3
Shell to atom map                          I   N=           4
           1           1           2           2
Primitive exponents                        R   N=          12
  9.91061690E+01  1.80523124E+01  4.88566024E+00  3.78045588E+00  8.78496645E-01
  2.85714374E-01  9.91061690E+01  1.80523124E+01  4.88566024E+00  3.78045588E+00
  8.78496645E-01  2.85714374E-01
Contraction coefficients                   R   N=          12
  1.54328967E-01  5.35328142E-01  4.44634542E-01 -9.99672292E-02  3.99512826E-01
  7.00115469E-01  1.54328967E-01  5.35328142E-01  4.44634542E-01 -9.99672292E-02
  3.99512826E-01  7.00115469E-01
P(S=P) Contraction coefficients            R   N=          12
  0.00000000E+00  0.00000000E+00  0.00000000E+00  1.55916275E-01  6.07683719E-01
  3.91957393E-01  0.00000000E+00  0.00000000E+00  0.00000000E+00  1.55916275E-01
  6.07683719E-01  3.91957393E-01
Coordinates of each shell                  R   N=          12
  0.00000000E+00  0.00000000E+00  0.00000000E+00  0.00000000E+00  0.00000000E+00
  0.00000000E+00  0.00000000E+00  0.00000000E+00  1.88972613E+00  0.00000000E+00
  0.00000000E+00  1.88972613E+00
Constraint Structure                       R   N=           6
  0.00000000E+00  0.00000000E+00  0.00000000E+00  0.00000000E+00  0.00000000E+00
  1.88972613E+00
Num ILSW                                   I              100
ILSW                                       I   N=         100
           1           0           0           0           2           0
           0           0           0           0           0          -1
           0           0           0           0           0           0
           0           0           1           0           0           0
           1           1           0           0           0           8
           0           0      100000           0          -1           0
           0           0           0           0           0           0
           0           0           0           1           0           0
           0           0           1           0           0           0
           0           0           4          41           0           0
           0           0           0           0           0           0
           0           0           0           0           0           0
           0           0           0           0           0           0
           0           0           0           0           0           0
           0           0           0           0           0           0
           0           0           0           0           0           0
           0           0           0           0
Num RLSW                                   I               41
RLSW                                       R   N=          41
  1.00000000E+00  1.00000000E+00  1.00000000E+00  1.00000000E+00  1.00000000E+00
  0.00000000E+00  0.00000000E+00  1.00000000E+00  0.00000000E+00  0.00000000E+00
  0.00000000E+00  0.00000000E+00  1.00000000E+00  0.00000000E+00  0.00000000E+00
  0.00000000E+00  0.00000000E+00  1.00000000E+00  0.00000000E+00  0.00000000E+00
  0.00000000E+00  0.00000000E+00  1.00000000E+00  0.00000000E+00  0.00000000E+00
  0.00000000E+00  0.00000000E+00  1.00000000E+00  0.00000000E+00  0.00000000E+00
  0.00000000E+00  0.00000000E+00  1.00000000E+00  0.00000000E+00  0.00000000E+00
  0.00000000E+00  0.00000000E+00  0.00000000E+00  1.00000000E+00  1.00000000E+00
  0.00000000E+00
MxBond                                     I                1
NBond                                      I   N=           2
           1           1
IBond                                      I   N=           2
           2           1
RBond                                      R   N=           2
  3.00000000E+00  3.00000000E+00
Virial Ratio                               R      2.016597961220206E+00
SCF Energy                                 R     -1.083163164983235E+02
Total Energy                               R     -1.083163164983235E+02
S**2                                       R      1.776356839400251E-14
S**2 after annihilation                    R     -1.243449787580189E-13
RMS Density                                R      9.564926542733083E-09
External E-field                           R   N=          35
  0.00000000E+00  0.00000000E+00  0.00000000E+00  0.00000000E+00  0.00000000E+00
  0.00000000E+00  0.00000000E+00  0.00000000E+00  0.00000000E+00  0.00000000E+00
  0.00000000E+00  0.00000000E+00  0.00000000E+00  0.00000000E+00  0.00000000E+00
  0.00000000E+00  0.00000000E+00  0.00000000E+00  0.00000000E+00  0.00000000E+00
  0.00000000E+00  0.00000000E+00  0.00000000E+00  0.00000000E+00  0.00000000E+00
  0.00000000E+00  0.00000000E+00  0.00000000E+00  0.00000000E+00  0.00000000E+00
  0.00000000E+00  0.00000000E+00  0.00000000E+00  0.00000000E+00  0.00000000E+00
IOpCl                                      I                1
IROHF                                      I                0
Alpha Orbital Energies                     R   N=          10
 -1.58632318E+01 -1.56039660E+01 -1.58404865E+00 -7.46067792E-01 -6.81342982E-01
 -6.81342982E-01 -5.99976774E-01  2.91917895E-01  2.91917895E-01  1.33769362E+00
Beta Orbital Energies                      R   N=          10
 -1.58632318E+01 -1.56039660E+01 -1.58404865E+00 -7.46067792E-01 -6.81342982E-01
 -6.81342982E-01 -5.99976774E-01  2.91917895E-01  2.91917895E-01  1.33769362E+00
Alpha MO coefficients                      R   N=         100
  8.92602403E-03 -1.02448853E-02  5.95418346E-16 -8.19640070E-16 -4.57616816E-03
  9.94871546E-01  2.58871437E-02 -6.55116862E-16  7.22756183E-16 -9.15887579E-03
  9.93978146E-01  3.07932878E-02 -7.28338197E-17  1.19792478E-16  1.07129057E-02
 -9.50988442E-03 -1.29166481E-02  7.62630122E-17 -3.89561622E-16  5.91189623E-03
 -1.82555517E-01  4.47874485E-01 -8.76397158E-18  7.73356421E-17  2.66961939E-01
 -1.83477765E-01  4.68340008E-01 -3.77728520E-16 -4.77511328E-16 -2.72491037E-01
  1.67393149E-01 -7.23991791E-01  1.53201974E-15 -5.08583047E-16  2.79737311E-01
 -1.65670067E-01  7.34419221E-01 -4.20886465E-16 -1.12470155E-15  3.06492504E-01
  2.08013291E-17 -2.63709191E-16  5.93409230E-01 -1.14324625E-01  1.17918504E-15
  2.81149707E-16 -1.72937031E-15  6.07224540E-01 -1.16986245E-01 -1.75116794E-15
  3.67117978E-16 -2.11735093E-15  1.14324625E-01  5.93409230E-01  2.28689947E-15
 -2.27528027E-17 -3.84866768E-16  1.16986245E-01  6.07224540E-01 -1.55724652E-15
  6.90504880E-02 -4.46155869E-01 -3.37727198E-15 -1.55805318E-15  6.07671622E-01
  6.15277376E-02 -4.12498844E-01  4.62228713E-17 -1.41001874E-15 -6.01419674E-01
 -1.72340435E-16 -9.25581114E-17  8.73399644E-01 -2.59482557E-02  9.59519747E-16
  1.23516047E-16 -9.54353580E-16 -8.63504093E-01  2.56542640E-02 -8.96692802E-16
  2.71511359E-17 -1.28472949E-16  2.59482557E-02  8.73399644E-01  1.58475793E-16
  1.10523151E-16 -1.85074388E-16 -2.56542640E-02 -8.63504093E-01 -2.56486795E-17
 -1.23727852E-01  1.58301930E+00 -1.26913023E-16 -2.85859802E-17  1.38707998E+00
  1.21406788E-01 -1.58148910E+00  1.12981465E-16  1.44801515E-17  1.38307611E+00
Beta MO coefficients                       R   N=         100
  8.92602403E-03 -1.02448853E-02  5.95418346E-16 -8.19640070E-16 -4.57616816E-03
  9.94871546E-01  2.58871437E-02 -6.55116862E-16  7.22756183E-16 -9.15887579E-03
  9.93978146E-01  3.07932878E-02 -7.28338197E-17  1.19792478E-16  1.07129057E-02
 -9.50988442E-03 -1.29166481E-02  7.62630122E-17 -3.89561622E-16  5.91189623E-03
 -1.82555517E-01  4.47874485E-01 -8.76397158E-18  7.73356421E-17  2.66961939E-01
 -1.83477765E-01  4.68340008E-01 -3.77728520E-16 -4.77511328E-16 -2.72491037E-01
  1.67393149E-01 -7.23991791E-01  1.53201974E-15 -5.08583047E-16  2.79737311E-01
 -1.65670067E-01  7.34419221E-01 -4.20886465E-16 -1.12470155E-15  3.06492504E-01
  2.08013291E-17 -2.63709191E-16  5.93409230E-01 -1.14324625E-01  1.17918504E-15
  2.81149707E-16 -1.72937031E-15  6.07224540E-01 -1.16986245E-01 -1.75116794E-15
  3.67117978E-16 -2.11735093E-15  1.14324625E-01  5.93409230E-01  2.28689947E-15
 -2.27528027E-17 -3.84866768E-16  1.16986245E-01  6.07224540E-01 -1.55724652E-15
  6.90504880E-02 -4.46155869E-01 -3.37727198E-15 -1.55805318E-15  6.07671622E-01
  6.15277376E-02 -4.12498844E-01  4.62228713E-17 -1.41001874E-15 -6.01419674E-01
 -1.72340435E-16 -9.25581114E-17  8.73399644E-01 -2.59482557E-02  9.59519747E-16
  1.23516047E-16 -9.54353580E-16 -8.63504093E-01  2.56542640E-02 -8.96692802E-16
  2.71511359E-17 -1.28472949E-16  2.59482557E-02  8.73399644E-01  1.58475793E-16
  1.10523151E-16 -1.85074388E-16 -2.56542640E-02 -8.63504093E-01 -2.56486795E-17
 -1.23727852E-01  1.58301930E+00 -1.26913023E-16 -2.85859802E-17  1.38707998E+00
  1.21406788E-01 -1.58148910E+00  1.12981465E-16  1.44801515E-17  1.38307611E+00
Cartesian Gradient                         R   N=           6
  0.00000000E+00  0.00000000E+00  0.00000000E+00  0.00000000E+00  0.00000000E+00
  0.00000000E+00
