run                                                                     
SP        UHF                                                         Gen                 
Number of atoms                            I                2
Info1-9                                    I   N=           9
          32          32           0           0           0         110
           1           1           2
Charge                                     I                0
Multiplicity                               I                1
Number of electrons                        I               14
Number of alpha electrons                  I                7
Number of beta electrons                   I                7
Number of basis functions                  I               10
Number of independent functions            I               10
Number of point charges in /Mol/           I                0
Number of translation vectors              I                0
Atomic numbers                             I   N=           2
           3          11
Nuclear charges                            R   N=           2
  3.00000000E+00  1.10000000E+01
Current cartesian coordinates              R   N=           6
  0.00000000E+00  0.00000000E+00  0.00000000E+00  0.00000000E+00  0.00000000E+00
  1.88972613E+00
Force Field                                I                0
Int Atom Types                             I   N=           2
           0           0
MM charges                                 R   N=           2
  0.00000000E+00  0.00000000E+00
Integer atomic weights                     I   N=           2
          14          14
Real atomic weights                        R   N=           2
  1.40030740E+01  1.40030740E+01
Atom fragment info                         I   N=           2
           0           0
Atom residue num                           I   N=           2
           0           0
Nuclear spins                              I   N=           2
           2           2
Nuclear ZEff                               R   N=           2
 -1.35000000E+00 -1.00400000E+01
Nuclear ZNuc                               R   N=           2
  3.00000000E+00  1.10000000E+01
Nuclear QMom                               R   N=           2
  2.04400000E+00  2.04400000E+00
Nuclear GFac                               R   N=           2
  4.03761000E-01  4.03761000E-01
MicOpt                                     I   N=           2
          -1          -1
Number of contracted shells                I                4
Number of primitive shells                 I               12
Pure/Cartesian d shells                    I                0
Pure/Cartesian f shells                    I                0
Highest angular momentum                   I                1
Largest degree of contraction              I                3
Shell types                                I   N=           4
           0          -1           0          -1
Number of primitives per shell             I   N=           4
           3           3           3           3
Shell to atom map                          I   N=           4
           1           1           2           2
Primitive exponents                        R   N=          12
  9.91061690E+01  1.80523124E+01  4.88566024E+00  3.78045588E+00  8.78496645E-01
  2.85714374E-01  9.91061690E+01  1.80523124E+01  4.88566024E+00  3.78045588E+00
  8.78496645E-01  2.85714374E-01
Contraction coefficients                   R   N=          12
  1.54328967E-01  5.35328142E-01  4.44634542E-01 -9.99672292E-02  3.99512826E-01
  7.00115469E-01  1.54328967E-01  5.35328142E-01  4.44634542E-01 -9.99672292E-02
  3.99512826E-01  7.00115469E-01
P(S=P) Contraction coefficients            R   N=          12
  0.00000000E+00  0.00000000E+00  0.00000000E+00  1.55916275E-01  6.07683719E-01
  3.91957393E-01  0.00000000E+00  0.00000000E+00  0.00000000E+00  1.55916275E-01
  6.07683719E-01  3.91957393E-01
Coordinates of each shell                  R   N=          12
  0.00000000E+00  0.00000000E+00  0.00000000E+00  0.00000000E+00  0.00000000E+00
  0.00000000E+00  0.00000000E+00  0.00000000E+00  1.88972613E+00  0.00000000E+00
  0.00000000E+00  1.88972613E+00
Constraint Structure                       R   N=           6
  0.00000000E+00  0.00000000E+00  0.00000000E+00  0.00000000E+00  0.00000000E+00
  1.88972613E+00
Num ILSW                                   I              100
ILSW                                       I   N=         100
           1           0           0           0           2           0
           0           0           0           0           0          -1
           0           0           0           0           0           0
           0           0           1           0           0           0
           1           1           0           0           0           8
           0           0      100000           0          -1           0
           0           0           0           0           0           0
           0           0           0           1           0           0
           0           0           1           0           0           0
           0           0           4          41           0           0
           0           0           0           0           0           0
           0           0           0           0           0           0
           0           0           0           0           0           0
           0           0           0           0           0           0
           0           0           0           0           0           0
           0           0           0           0           0           0
           0           0           0           0
Num RLSW                                   I               41
RLSW                                       R   N=          41
  1.00000000E+00  1.00000000E+00  1.00000000E+00  1.00000000E+00  1.00000000E+00
  0.00000000E+00  0.00000000E+00  1.00000000E+00  0.00000000E+00  0.00000000E+00
  0.00000000E+00  0.00000000E+00  1.00000000E+00  0.00000000E+00  0.00000000E+00
  0.00000000E+00  0.00000000E+00  1.00000000E+00  0.00000000E+00  0.00000000E+00
  0.00000000E+00  0.00000000E+00  1.00000000E+00  0.00000000E+00  0.00000000E+00
  0.00000000E+00  0.00000000E+00  1.00000000E+00  0.00000000E+00  0.00000000E+00
  0.00000000E+00  0.00000000E+00  1.00000000E+00  0.00000000E+00  0.00000000E+00
  0.00000000E+00  0.00000000E+00  0.00000000E+00  1.00000000E+00  1.00000000E+00
  0.00000000E+00
MxBond                                     I                1
NBond                                      I   N=           2
           1           1
IBond                                      I   N=           2
           2           1
RBond                                      R   N=           2
  3.00000000E+00  3.00000000E+00
Virial Ratio                               R      2.965838055435106E+00
SCF Energy                                 R     -1.391314542584262E+02
Total Energy                               R     -1.391314542584262E+02
S**2                                       R     -1.154631945610163E-14
S**2 after annihilation                    R     -9.592326932761318E-14
RMS Density                                R      6.754439285077076E-09
External E-field                           R   N=          35
  0.00000000E+00  0.00000000E+00  0.00000000E+00  0.00000000E+00  0.00000000E+00
  0.00000000E+00  0.00000000E+00  0.00000000E+00  0.00000000E+00  0.00000000E+00
  0.00000000E+00  0.00000000E+00  0.00000000E+00  0.00000000E+00  0.00000000E+00
  0.00000000E+00  0.00000000E+00  0.00000000E+00  0.00000000E+00  0.00000000E+00
  0.00000000E+00  0.00000000E+00  0.00000000E+00  0.00000000E+00  0.00000000E+00
  0.00000000E+00  0.00000000E+00  0.00000000E+00  0.00000000E+00  0.00000000E+00
  0.00000000E+00  0.00000000E+00  0.00000000E+00  0.00000000E+00  0.00000000E+00
IOpCl                                      I                1
IROHF                                      I                0
Alpha Orbital Energies                     R   N=          10
 -3.83806523E+01 -2.70233680E+00 -2.03444372E+00 -1.81358251E+00 -1.79852494E+00
 -1.21042152E+00  5.38781136E-01  1.10566480E+00  1.68269403E+00  7.66059638E+00
Beta Orbital Energies                      R   N=          10
 -3.83806523E+01 -2.70233680E+00 -2.03444372E+00 -1.81358251E+00 -1.79852494E+00
 -1.21042152E+00  5.38781136E-01  1.10566480E+00  1.68269403E+00  7.66059638E+00
Alpha MO coefficients                      R   N=         100
 -1.28189423E-03  6.60285488E-02  1.79864330E-16 -3.72717870E-18  3.78255115E-02
  1.01916202E+00 -1.33958451E-01 -4.43386479E-17  1.52168855E-17  4.28223405E-02
  5.04463201E-02 -2.62009672E-01 -3.88171133E-16 -9.43574049E-16 -1.23272768E-01
 -1.59057473E-01  1.14267143E+00  8.50380321E-17  1.31359548E-16 -5.00106434E-01
 -6.50228715E-02  6.36256882E-02  6.69251562E-16  9.76027784E-16  8.17097074E-02
 -5.61673451E-02  2.95178874E-01 -7.06888195E-16 -6.25385572E-15  9.78611204E-01
  2.43174440E-17  4.54157184E-16 -7.96872399E-02 -3.60859085E-03  1.27849348E-16
 -3.12274037E-17  5.80373145E-18  1.02306530E+00  4.63289239E-02  9.20185849E-16
 -4.40816313E-16 -2.07456713E-16  3.34241650E-03 -7.38094057E-02  4.01515211E-16
 -3.34125293E-16  1.96331670E-15 -4.62572069E-02  1.02148160E+00  4.98946315E-15
  2.53705349E-01  1.46170239E+00  2.93106398E-16  6.77025119E-16  3.01608450E-01
  4.01313455E-02 -8.12238457E-01 -2.95316287E-16  1.11281541E-16  7.83475762E-01
 -7.22433229E-17 -1.12873399E-15 -4.79447914E-02  1.05874793E+00 -1.44905943E-16
 -1.04450167E-16  1.32272991E-15  1.30439863E-02 -2.88045753E-01 -1.38420664E-15
 -1.92509906E-16 -1.80273468E-15  1.05832176E+00  4.79254926E-02 -3.00473743E-15
  3.35173989E-17  2.39683443E-15 -2.82369271E-01 -1.27869301E-02 -1.90576236E-15
  8.45264640E-02  7.39610521E-01  2.28684921E-15 -1.69065987E-16  1.49343523E+00
  2.43155701E-02 -1.07503777E+00 -6.17338572E-16  5.85234772E-17  7.35909267E-01
  9.95595393E-01 -8.18632615E-01 -6.96426492E-19  1.26978924E-18 -3.13517375E-01
 -1.21948061E-02  4.52330711E-01 -6.66391375E-18 -7.03024358E-19 -2.79098915E-01
Beta MO coefficients                       R   N=         100
 -1.28189423E-03  6.60285488E-02  1.79864330E-16 -3.72717870E-18  3.78255115E-02
  1.01916202E+00 -1.33958451E-01 -4.43386479E-17  1.52168855E-17  4.28223405E-02
  5.04463201E-02 -2.62009672E-01 -3.88171133E-16 -9.43574049E-16 -1.23272768E-01
 -1.59057473E-01  1.14267143E+00  8.50380321E-17  1.31359548E-16 -5.00106434E-01
 -6.50228715E-02  6.36256882E-02  6.69251562E-16  9.76027784E-16  8.17097074E-02
 -5.61673451E-02  2.95178874E-01 -7.06888195E-16 -6.25385572E-15  9.78611204E-01
  2.43174440E-17  4.54157184E-16 -7.96872399E-02 -3.60859085E-03  1.27849348E-16
 -3.12274037E-17  5.80373145E-18  1.02306530E+00  4.63289239E-02  9.20185849E-16
 -4.40816313E-16 -2.07456713E-16  3.34241650E-03 -7.38094057E-02  4.01515211E-16
 -3.34125293E-16  1.96331670E-15 -4.62572069E-02  1.02148160E+00  4.98946315E-15
  2.53705349E-01  1.46170239E+00  2.93106398E-16  6.77025119E-16  3.01608450E-01
  4.01313455E-02 -8.12238457E-01 -2.95316287E-16  1.11281541E-16  7.83475762E-01
 -7.22433229E-17 -1.12873399E-15 -4.79447914E-02  1.05874793E+00 -1.44905943E-16
 -1.04450167E-16  1.32272991E-15  1.30439863E-02 -2.88045753E-01 -1.38420664E-15
 -1.92509906E-16 -1.80273468E-15  1.05832176E+00  4.79254926E-02 -3.00473743E-15
  3.35173989E-17  2.39683443E-15 -2.82369271E-01 -1.27869301E-02 -1.90576236E-15
  8.45264640E-02  7.39610521E-01  2.28684921E-15 -1.69065987E-16  1.49343523E+00
  2.43155701E-02 -1.07503777E+00 -6.17338572E-16  5.85234772E-17  7.35909267E-01
  9.95595393E-01 -8.18632615E-01 -6.96426492E-19  1.26978924E-18 -3.13517375E-01
 -1.21948061E-02  4.52330711E-01 -6.66391375E-18 -7.03024358E-19 -2.79098915E-01
Cartesian Gradient                         R   N=           6
  0.00000000E+00  0.00000000E+00  0.00000000E+00  0.00000000E+00  0.00000000E+00
  0.00000000E+00
