run                                                                     
SP        UHF                                                         Gen                 
Number of atoms                            I                2
Info1-9                                    I   N=           9
          32          32           0           0           0         110
           1           1           2
Charge                                     I                0
Multiplicity                               I                1
Number of electrons                        I               14
Number of alpha electrons                  I                7
Number of beta electrons                   I                7
Number of basis functions                  I               10
Number of independent functions            I               10
Number of point charges in /Mol/           I                0
Number of translation vectors              I                0
Atomic numbers                             I   N=           2
          14           0
Nuclear charges                            R   N=           2
  1.40000000E+01  0.00000000E+00
Current cartesian coordinates              R   N=           6
  0.00000000E+00  0.00000000E+00  0.00000000E+00  0.00000000E+00  0.00000000E+00
  1.88972613E+00
Force Field                                I                0
Int Atom Types                             I   N=           2
           0           0
MM charges                                 R   N=           2
  0.00000000E+00  0.00000000E+00
Integer atomic weights                     I   N=           2
          14          14
Real atomic weights                        R   N=           2
  1.40030740E+01  1.40030740E+01
Atom fragment info                         I   N=           2
           0           0
Atom residue num                           I   N=           2
           0           0
Nuclear spins                              I   N=           2
           2           2
Nuclear ZEff                               R   N=           2
 -1.22500000E+01  0.00000000E+00
Nuclear ZNuc                               R   N=           2
  1.40000000E+01  0.00000000E+00
Nuclear QMom                               R   N=           2
  2.04400000E+00  2.04400000E+00
Nuclear GFac                               R   N=           2
  4.03761000E-01  4.03761000E-01
MicOpt                                     I   N=           2
          -1          -1
Number of contracted shells                I                4
Number of primitive shells                 I               12
Pure/Cartesian d shells                    I                0
Pure/Cartesian f shells                    I                0
Highest angular momentum                   I                1
Largest degree of contraction              I                3
Shell types                                I   N=           4
           0          -1           0          -1
Number of primitives per shell             I   N=           4
           3           3           3           3
Shell to atom map                          I   N=           4
           1           1           2           2
Primitive exponents                        R   N=          12
  9.91061690E+01  1.80523124E+01  4.88566024E+00  3.78045588E+00  8.78496645E-01
  2.85714374E-01  9.91061690E+01  1.80523124E+01  4.88566024E+00  3.78045588E+00
  8.78496645E-01  2.85714374E-01
Contraction coefficients                   R   N=          12
  1.54328967E-01  5.35328142E-01  4.44634542E-01 -9.99672292E-02  3.99512826E-01
  7.00115469E-01  1.54328967E-01  5.35328142E-01  4.44634542E-01 -9.99672292E-02
  3.99512826E-01  7.00115469E-01
P(S=P) Contraction coefficients            R   N=          12
  0.00000000E+00  0.00000000E+00  0.00000000E+00  1.55916275E-01  6.07683719E-01
  3.91957393E-01  0.00000000E+00  0.00000000E+00  0.00000000E+00  1.55916275E-01
  6.07683719E-01  3.91957393E-01
Coordinates of each shell                  R   N=          12
  0.00000000E+00  0.00000000E+00  0.00000000E+00  0.00000000E+00  0.00000000E+00
  0.00000000E+00  0.00000000E+00  0.00000000E+00  1.88972613E+00  0.00000000E+00
  0.00000000E+00  1.88972613E+00
Constraint Structure                       R   N=           6
  0.00000000E+00  0.00000000E+00  0.00000000E+00  0.00000000E+00  0.00000000E+00
  1.88972613E+00
Num ILSW                                   I              100
ILSW                                       I   N=         100
           1           0           0           0           2           0
           0           0           0           0           0          -1
           0           0           0           0           0           0
           0           0           1           0           0           0
           1           1           0           0           0           8
           0           0      100000           0          -1           0
           0           0           0           0           0           0
           0           0           0           1           0           0
           0           0           1           0           0           0
           0           0           4          41           0           0
           0           0           0           0           0           0
           0           0           0           0           0           0
           0           0           0           0           0           0
           0           0           0           0           0           0
           0           0           0           0           0           0
           0           0           0           0           0           0
           0           0           0           0
Num RLSW                                   I               41
RLSW                                       R   N=          41
  1.00000000E+00  1.00000000E+00  1.00000000E+00  1.00000000E+00  1.00000000E+00
  0.00000000E+00  0.00000000E+00  1.00000000E+00  0.00000000E+00  0.00000000E+00
  0.00000000E+00  0.00000000E+00  1.00000000E+00  0.00000000E+00  0.00000000E+00
  0.00000000E+00  0.00000000E+00  1.00000000E+00  0.00000000E+00  0.00000000E+00
  0.00000000E+00  0.00000000E+00  1.00000000E+00  0.00000000E+00  0.00000000E+00
  0.00000000E+00  0.00000000E+00  1.00000000E+00  0.00000000E+00  0.00000000E+00
  0.00000000E+00  0.00000000E+00  1.00000000E+00  0.00000000E+00  0.00000000E+00
  0.00000000E+00  0.00000000E+00  0.00000000E+00  1.00000000E+00  1.00000000E+00
  0.00000000E+00
MxBond                                     I                1
NBond                                      I   N=           2
           1           1
IBond                                      I   N=           2
           2           1
RBond                                      R   N=           2
  3.00000000E+00  3.00000000E+00
Virial Ratio                               R      3.893481314433032E+00
SCF Energy                                 R     -1.991636014255445E+02
Total Energy                               R     -1.991636014255445E+02
S**2                                       R      1.598721155460225E-14
S**2 after annihilation                    R     -1.554312234475220E-13
RMS Density                                R      3.072246039341342E-09
External E-field                           R   N=          35
  0.00000000E+00  0.00000000E+00  0.00000000E+00  0.00000000E+00  0.00000000E+00
  0.00000000E+00  0.00000000E+00  0.00000000E+00  0.00000000E+00  0.00000000E+00
  0.00000000E+00  0.00000000E+00  0.00000000E+00  0.00000000E+00  0.00000000E+00
  0.00000000E+00  0.00000000E+00  0.00000000E+00  0.00000000E+00  0.00000000E+00
  0.00000000E+00  0.00000000E+00  0.00000000E+00  0.00000000E+00  0.00000000E+00
  0.00000000E+00  0.00000000E+00  0.00000000E+00  0.00000000E+00  0.00000000E+00
  0.00000000E+00  0.00000000E+00  0.00000000E+00  0.00000000E+00  0.00000000E+00
IOpCl                                      I                1
IROHF                                      I                0
Alpha Orbital Energies                     R   N=          10
 -5.68948905E+01 -4.12232777E+00 -3.80920832E+00 -3.38038327E+00 -3.36272852E+00
  7.82876552E-01  2.00672595E+00  2.57554670E+00  3.38697409E+00  2.51245596E+01
Beta Orbital Energies                      R   N=          10
 -5.68948905E+01 -4.12232777E+00 -3.80920832E+00 -3.38038327E+00 -3.36272852E+00
  7.82876552E-01  2.00672595E+00  2.57554670E+00  3.38697409E+00  2.51245596E+01
Alpha MO coefficients                      R   N=         100
  1.02286257E+00 -1.68850626E-01  3.45829237E-17  4.93686267E-17 -5.49200794E-02
 -1.63988132E-03  8.36125402E-02 -2.48358363E-16 -3.41781863E-16 -4.79615834E-02
 -1.49994743E-01  1.36997142E+00 -1.81096703E-15  6.48030771E-17  4.76710106E-01
 -5.07269724E-03 -5.41150423E-01  7.91637338E-16 -6.12268199E-17  2.59427156E-01
  1.72375583E-02  1.91017515E-01  7.73549878E-15  3.90409154E-17  1.27426937E+00
 -6.72161678E-03 -5.73803377E-01 -4.88508985E-16  9.67998639E-17  2.95666830E-01
  8.20599635E-18 -6.85913085E-17 -5.49916935E-14  1.03795361E+00 -8.63669545E-17
  4.76753822E-19  3.49764951E-17  7.52727559E-15 -1.37188172E-01 -2.16984900E-17
 -3.29475507E-16  6.23751107E-16  1.03777914E+00  5.48929818E-14 -8.14240256E-15
  3.87360026E-17  3.18683941E-15 -1.36378458E-01 -7.48656790E-15 -1.66285082E-15
  1.72436357E-02 -6.87174732E-01 -7.27038345E-16 -7.88005736E-17 -4.37479527E-01
  1.58557522E-02  1.46567414E+00  3.40893551E-15  3.90113747E-16 -3.08991046E-01
 -7.26866860E-17  3.84003963E-15 -2.27418881E-01  2.47131533E-15  2.42951297E-15
 -8.23502149E-17 -5.83766052E-15  1.05361558E+00 -1.03490307E-14  4.43662125E-15
 -1.06710028E-16  5.58744277E-16 -2.35363028E-15 -2.26621231E-01  4.22210798E-16
 -1.58958409E-17 -1.04889859E-15  1.03342168E-14  1.05351046E+00  8.55869230E-16
 -1.14757883E-02  9.84477843E-01  4.97786051E-16  1.49960107E-16  6.17240831E-01
 -1.48999504E-02 -6.87886291E-01 -2.26253475E-15 -6.96809069E-16  1.47277867E+00
 -4.83068738E-03  2.18147591E-01 -1.78008104E-19 -1.40415060E-19  1.28480584E-01
  1.03389978E+00 -4.24665316E-01  4.92222264E-19  2.76660473E-18  1.46078415E-01
Beta MO coefficients                       R   N=         100
  1.02286257E+00 -1.68850626E-01  3.45829237E-17  4.93686267E-17 -5.49200794E-02
 -1.63988132E-03  8.36125402E-02 -2.48358363E-16 -3.41781863E-16 -4.79615834E-02
 -1.49994743E-01  1.36997142E+00 -1.81096703E-15  6.48030771E-17  4.76710106E-01
 -5.07269724E-03 -5.41150423E-01  7.91637338E-16 -6.12268199E-17  2.59427156E-01
  1.72375583E-02  1.91017515E-01  7.73549878E-15  3.90409154E-17  1.27426937E+00
 -6.72161678E-03 -5.73803377E-01 -4.88508985E-16  9.67998639E-17  2.95666830E-01
  8.20599635E-18 -6.85913085E-17 -5.49916935E-14  1.03795361E+00 -8.63669545E-17
  4.76753822E-19  3.49764951E-17  7.52727559E-15 -1.37188172E-01 -2.16984900E-17
 -3.29475507E-16  6.23751107E-16  1.03777914E+00  5.48929818E-14 -8.14240256E-15
  3.87360026E-17  3.18683941E-15 -1.36378458E-01 -7.48656790E-15 -1.66285082E-15
  1.72436357E-02 -6.87174732E-01 -7.27038345E-16 -7.88005736E-17 -4.37479527E-01
  1.58557522E-02  1.46567414E+00  3.40893551E-15  3.90113747E-16 -3.08991046E-01
 -7.26866860E-17  3.84003963E-15 -2.27418881E-01  2.47131533E-15  2.42951297E-15
 -8.23502149E-17 -5.83766052E-15  1.05361558E+00 -1.03490307E-14  4.43662125E-15
 -1.06710028E-16  5.58744277E-16 -2.35363028E-15 -2.26621231E-01  4.22210798E-16
 -1.58958409E-17 -1.04889859E-15  1.03342168E-14  1.05351046E+00  8.55869230E-16
 -1.14757883E-02  9.84477843E-01  4.97786051E-16  1.49960107E-16  6.17240831E-01
 -1.48999504E-02 -6.87886291E-01 -2.26253475E-15 -6.96809069E-16  1.47277867E+00
 -4.83068738E-03  2.18147591E-01 -1.78008104E-19 -1.40415060E-19  1.28480584E-01
  1.03389978E+00 -4.24665316E-01  4.92222264E-19  2.76660473E-18  1.46078415E-01
Cartesian Gradient                         R   N=           6
  0.00000000E+00  0.00000000E+00  0.00000000E+00  0.00000000E+00  0.00000000E+00
  0.00000000E+00
