run                                                                     
SP        UHF                                                         Gen                 
Number of atoms                            I                2
Info1-9                                    I   N=           9
          32          32           0           0           0         110
           1           1           2
Charge                                     I                0
Multiplicity                               I                1
Number of electrons                        I               14
Number of alpha electrons                  I                7
Number of beta electrons                   I                7
Number of basis functions                  I               10
Number of independent functions            I               10
Number of point charges in /Mol/           I                0
Number of translation vectors              I                0
Atomic numbers                             I   N=           2
           7           7
Nuclear charges                            R   N=           2
  7.00000000E+00  7.05000000E+00
Current cartesian coordinates              R   N=           6
  0.00000000E+00  0.00000000E+00  0.00000000E+00  0.00000000E+00  0.00000000E+00
  1.88972613E+00
Force Field                                I                0
Int Atom Types                             I   N=           2
           0           0
MM charges                                 R   N=           2
  0.00000000E+00  0.00000000E+00
Integer atomic weights                     I   N=           2
          14          14
Real atomic weights                        R   N=           2
  1.40030740E+01  1.40030740E+01
Atom fragment info                         I   N=           2
           0           0
Atom residue num                           I   N=           2
           0           0
Nuclear spins                              I   N=           2
           2           2
Nuclear ZEff                               R   N=           2
 -4.55000000E+00 -4.55000000E+00
Nuclear ZNuc                               R   N=           2
  7.00000000E+00  7.00000000E+00
Nuclear QMom                               R   N=           2
  2.04400000E+00  2.04400000E+00
Nuclear GFac                               R   N=           2
  4.03761000E-01  4.03761000E-01
MicOpt                                     I   N=           2
          -1          -1
Number of contracted shells                I                4
Number of primitive shells                 I               12
Pure/Cartesian d shells                    I                0
Pure/Cartesian f shells                    I                0
Highest angular momentum                   I                1
Largest degree of contraction              I                3
Shell types                                I   N=           4
           0          -1           0          -1
Number of primitives per shell             I   N=           4
           3           3           3           3
Shell to atom map                          I   N=           4
           1           1           2           2
Primitive exponents                        R   N=          12
  9.91061690E+01  1.80523124E+01  4.88566024E+00  3.78045588E+00  8.78496645E-01
  2.85714374E-01  9.91061690E+01  1.80523124E+01  4.88566024E+00  3.78045588E+00
  8.78496645E-01  2.85714374E-01
Contraction coefficients                   R   N=          12
  1.54328967E-01  5.35328142E-01  4.44634542E-01 -9.99672292E-02  3.99512826E-01
  7.00115469E-01  1.54328967E-01  5.35328142E-01  4.44634542E-01 -9.99672292E-02
  3.99512826E-01  7.00115469E-01
P(S=P) Contraction coefficients            R   N=          12
  0.00000000E+00  0.00000000E+00  0.00000000E+00  1.55916275E-01  6.07683719E-01
  3.91957393E-01  0.00000000E+00  0.00000000E+00  0.00000000E+00  1.55916275E-01
  6.07683719E-01  3.91957393E-01
Coordinates of each shell                  R   N=          12
  0.00000000E+00  0.00000000E+00  0.00000000E+00  0.00000000E+00  0.00000000E+00
  0.00000000E+00  0.00000000E+00  0.00000000E+00  1.88972613E+00  0.00000000E+00
  0.00000000E+00  1.88972613E+00
Constraint Structure                       R   N=           6
  0.00000000E+00  0.00000000E+00  0.00000000E+00  0.00000000E+00  0.00000000E+00
  1.88972613E+00
Num ILSW                                   I              100
ILSW                                       I   N=         100
           1           0           0           0           2           0
           0           0           0           0           0          -1
           0           0           0           0           0           0
           0           0           1           0           0           0
           1           1           0           0           0           8
           0           0      100000           0          -1           0
           0           0           0           0           0           0
           0           0           0           1           0           0
           0           0           1           0           0           0
           0           0           4          41           0           0
           0           0           0           0           0           0
           0           0           0           0           0           0
           0           0           0           0           0           0
           0           0           0           0           0           0
           0           0           0           0           0           0
           0           0           0           0           0           0
           0           0           0           0
Num RLSW                                   I               41
RLSW                                       R   N=          41
  1.00000000E+00  1.00000000E+00  1.00000000E+00  1.00000000E+00  1.00000000E+00
  0.00000000E+00  0.00000000E+00  1.00000000E+00  0.00000000E+00  0.00000000E+00
  0.00000000E+00  0.00000000E+00  1.00000000E+00  0.00000000E+00  0.00000000E+00
  0.00000000E+00  0.00000000E+00  1.00000000E+00  0.00000000E+00  0.00000000E+00
  0.00000000E+00  0.00000000E+00  1.00000000E+00  0.00000000E+00  0.00000000E+00
  0.00000000E+00  0.00000000E+00  1.00000000E+00  0.00000000E+00  0.00000000E+00
  0.00000000E+00  0.00000000E+00  1.00000000E+00  0.00000000E+00  0.00000000E+00
  0.00000000E+00  0.00000000E+00  0.00000000E+00  1.00000000E+00  1.00000000E+00
  0.00000000E+00
MxBond                                     I                1
NBond                                      I   N=           2
           1           1
IBond                                      I   N=           2
           2           1
RBond                                      R   N=           2
  3.00000000E+00  3.00000000E+00
Virial Ratio                               R      2.016597961197277E+00
SCF Energy                                 R     -1.083163164983235E+02
Total Energy                               R     -1.083163164983235E+02
S**2                                       R      8.881784197001252E-16
S**2 after annihilation                    R     -5.595524044110794E-14
RMS Density                                R      4.702716286389234E-09
External E-field                           R   N=          35
  0.00000000E+00  0.00000000E+00  0.00000000E+00  0.00000000E+00  0.00000000E+00
  0.00000000E+00  0.00000000E+00  0.00000000E+00  0.00000000E+00  0.00000000E+00
  0.00000000E+00  0.00000000E+00  0.00000000E+00  0.00000000E+00  0.00000000E+00
  0.00000000E+00  0.00000000E+00  0.00000000E+00  0.00000000E+00  0.00000000E+00
  0.00000000E+00  0.00000000E+00  0.00000000E+00  0.00000000E+00  0.00000000E+00
  0.00000000E+00  0.00000000E+00  0.00000000E+00  0.00000000E+00  0.00000000E+00
  0.00000000E+00  0.00000000E+00  0.00000000E+00  0.00000000E+00  0.00000000E+00
IOpCl                                      I                1
IROHF                                      I                0
Alpha Orbital Energies                     R   N=          10
 -1.58632318E+01 -1.56039660E+01 -1.58404864E+00 -7.46067792E-01 -6.81342980E-01
 -6.81342980E-01 -5.99976773E-01  2.91917894E-01  2.91917894E-01  1.33769362E+00
Beta Orbital Energies                      R   N=          10
 -1.58632318E+01 -1.56039660E+01 -1.58404864E+00 -7.46067792E-01 -6.81342980E-01
 -6.81342980E-01 -5.99976773E-01  2.91917894E-01  2.91917894E-01  1.33769362E+00
Alpha MO coefficients                      R   N=         100
  8.92602431E-03 -1.02448853E-02 -3.01015356E-16  1.16123516E-16 -4.57616818E-03
  9.94871546E-01  2.58871437E-02  5.45348743E-16  5.88465707E-16 -9.15887585E-03
  9.93978146E-01  3.07932878E-02  1.41887965E-16  2.49398478E-16  1.07129057E-02
 -9.50988470E-03 -1.29166480E-02 -7.31648022E-16 -6.41508776E-17  5.91189623E-03
 -1.82555517E-01  4.47874490E-01  2.76763171E-16  4.81251310E-16  2.66961942E-01
 -1.83477764E-01  4.68340002E-01 -2.21624387E-18 -7.50645018E-16 -2.72491033E-01
  1.67393152E-01 -7.23991815E-01  6.92879478E-15  4.54603193E-15  2.79737340E-01
 -1.65670064E-01  7.34419203E-01  6.71274721E-15  4.91247616E-15  3.06492472E-01
 -1.43993673E-15  6.79788275E-15  5.81784794E-01 -1.63496435E-01 -3.28490954E-15
  1.26373847E-15 -5.46522616E-15  5.95329478E-01 -1.67302838E-01 -1.24548286E-15
 -1.42027009E-15  6.25901512E-15  1.63496435E-01  5.81784794E-01 -3.65588864E-16
  2.00685645E-15 -9.13860376E-15  1.67302838E-01  5.95329478E-01 -4.76538865E-15
  6.90504780E-02 -4.46155814E-01  1.90201624E-16 -4.15989794E-16  6.07671624E-01
  6.15277471E-02 -4.12498898E-01  7.32712310E-16 -3.83015338E-15 -6.01419673E-01
  6.81489342E-17 -3.65570554E-17  6.50566235E-01 -5.83321376E-01  5.55596259E-16
 -2.29066144E-17 -1.17445163E-16 -6.43195367E-01  5.76712387E-01 -8.10213497E-16
  1.97229275E-17 -1.17118986E-17  5.83321376E-01  6.50566235E-01 -7.07212539E-16
  9.87144346E-17  1.77681154E-16 -5.76712387E-01 -6.43195367E-01  5.37342579E-16
 -1.23727852E-01  1.58301930E+00  4.98792020E-16 -1.82262789E-16  1.38707997E+00
  1.21406788E-01 -1.58148910E+00 -7.34432910E-17 -8.46588485E-17  1.38307612E+00
Beta MO coefficients                       R   N=         100
  8.92602431E-03 -1.02448853E-02 -3.01015356E-16  1.16123516E-16 -4.57616818E-03
  9.94871546E-01  2.58871437E-02  5.45348743E-16  5.88465707E-16 -9.15887585E-03
  9.93978146E-01  3.07932878E-02  1.41887965E-16  2.49398478E-16  1.07129057E-02
 -9.50988470E-03 -1.29166480E-02 -7.31648022E-16 -6.41508776E-17  5.91189623E-03
 -1.82555517E-01  4.47874490E-01  2.76763171E-16  4.81251310E-16  2.66961942E-01
 -1.83477764E-01  4.68340002E-01 -2.21624387E-18 -7.50645018E-16 -2.72491033E-01
  1.67393152E-01 -7.23991815E-01  6.92879478E-15  4.54603193E-15  2.79737340E-01
 -1.65670064E-01  7.34419203E-01  6.71274721E-15  4.91247616E-15  3.06492472E-01
 -1.43993673E-15  6.79788275E-15  5.81784794E-01 -1.63496435E-01 -3.28490954E-15
  1.26373847E-15 -5.46522616E-15  5.95329478E-01 -1.67302838E-01 -1.24548286E-15
 -1.42027009E-15  6.25901512E-15  1.63496435E-01  5.81784794E-01 -3.65588864E-16
  2.00685645E-15 -9.13860376E-15  1.67302838E-01  5.95329478E-01 -4.76538865E-15
  6.90504780E-02 -4.46155814E-01  1.90201624E-16 -4.15989794E-16  6.07671624E-01
  6.15277471E-02 -4.12498898E-01  7.32712310E-16 -3.83015338E-15 -6.01419673E-01
  6.81489342E-17 -3.65570554E-17  6.50566235E-01 -5.83321376E-01  5.55596259E-16
 -2.29066144E-17 -1.17445163E-16 -6.43195367E-01  5.76712387E-01 -8.10213497E-16
  1.97229275E-17 -1.17118986E-17  5.83321376E-01  6.50566235E-01 -7.07212539E-16
  9.87144346E-17  1.77681154E-16 -5.76712387E-01 -6.43195367E-01  5.37342579E-16
 -1.23727852E-01  1.58301930E+00  4.98792020E-16 -1.82262789E-16  1.38707997E+00
  1.21406788E-01 -1.58148910E+00 -7.34432910E-17 -8.46588485E-17  1.38307612E+00
Total SCF Density                          R   N=          55
  2.10837436E+00 -4.06488189E-01  1.84972780E+00  3.81691893E-16  1.67788516E-17
  7.30409261E-01  6.04922749E-16 -7.07386205E-16 -4.60742555E-15  7.30409261E-01
  1.01316606E-01 -7.07403122E-01  3.19445238E-16  2.94780561E-15  1.03784434E+00
  1.88779889E-02 -3.34775082E-04 -8.48908672E-16  4.14125676E-16 -1.25183190E-01
  2.10951231E+00 -7.30469785E-03 -2.77160254E-01  9.12922992E-16 -1.37538656E-15
  1.59105433E-01 -4.14208324E-01  1.85941250E+00 -1.28511941E-15 -2.43712801E-16
  7.47414110E-01 -3.77475828E-15  5.90723313E-16  1.14198178E-15 -2.64534271E-16
  7.64814853E-01  6.34805477E-17  7.93849727E-16  5.35682609E-15  7.47414110E-01
 -1.65023494E-15  1.31517470E-15  6.52247481E-16  6.46704912E-15  7.64814853E-01
  1.30631420E-01 -1.50674123E-01  8.67371413E-16 -2.11203089E-15 -7.04735540E-01
 -9.39054116E-02  6.90493999E-01  1.38573762E-16  2.75867628E-15  1.06002692E+00
Spin SCF Density                           R   N=          55
  0.00000000E+00  0.00000000E+00  0.00000000E+00  0.00000000E+00  0.00000000E+00
  0.00000000E+00  0.00000000E+00  0.00000000E+00  0.00000000E+00  0.00000000E+00
  0.00000000E+00  0.00000000E+00  0.00000000E+00  0.00000000E+00  0.00000000E+00
  0.00000000E+00  0.00000000E+00  0.00000000E+00  0.00000000E+00  0.00000000E+00
  0.00000000E+00  0.00000000E+00  0.00000000E+00  0.00000000E+00  0.00000000E+00
  0.00000000E+00  0.00000000E+00  0.00000000E+00  0.00000000E+00  0.00000000E+00
  0.00000000E+00  0.00000000E+00  0.00000000E+00  0.00000000E+00  0.00000000E+00
  0.00000000E+00  0.00000000E+00  0.00000000E+00  0.00000000E+00  0.00000000E+00
  0.00000000E+00  0.00000000E+00  0.00000000E+00  0.00000000E+00  0.00000000E+00
  0.00000000E+00  0.00000000E+00  0.00000000E+00  0.00000000E+00  0.00000000E+00
  0.00000000E+00  0.00000000E+00  0.00000000E+00  0.00000000E+00  0.00000000E+00
Mulliken Charges                           R   N=           2
  4.90936776E-02  9.06322424E-04
Cartesian Gradient                         R   N=           6
  0.00000000E+00  0.00000000E+00  0.00000000E+00  0.00000000E+00  0.00000000E+00
  0.00000000E+00
Dipole Moment                              R   N=           3
 -7.15529830E-17 -4.24325257E-17  1.91136132E-02
Quadrupole Moment                          R   N=           6
  6.44458318E-01  6.44458318E-01 -1.28891664E+00 -2.00792169E-15 -6.15688526E-16
 -5.17260356E-15
Anisotropic Hyperfine tensors              R   N=          12
  0.00000000E+00  0.00000000E+00  0.00000000E+00  0.00000000E+00  0.00000000E+00
  0.00000000E+00  0.00000000E+00  0.00000000E+00  0.00000000E+00  0.00000000E+00
  0.00000000E+00  0.00000000E+00
Isotropic Hyperfine splittings             R   N=           2
  0.00000000E+00  0.00000000E+00
QEq coupling tensors                       R   N=          12
 -1.33830258E-01 -1.18910808E-14 -1.33830258E-01 -1.77486221E-16  7.60422154E-15
  2.67660517E-01 -1.18341942E-01  1.78887517E-14 -1.18341942E-01  4.19604279E-18
  7.37648119E-15  2.36683883E-01
