run                                                                     
SP        UHF                                                         Gen                 
Number of atoms                            I                2
Info1-9                                    I   N=           9
          32          32           0           0           0         110
           1           1           2
Charge                                     I                0
Multiplicity                               I                1
Number of electrons                        I               14
Number of alpha electrons                  I                7
Number of beta electrons                   I                7
Number of basis functions                  I               10
Number of independent functions            I               10
Number of point charges in /Mol/           I                0
Number of translation vectors              I                0
Atomic numbers                             I   N=           2
           8           6
Nuclear charges                            R   N=           2
  8.00000000E+00  6.00000000E+00
Current cartesian coordinates              R   N=           6
  0.00000000E+00  0.00000000E+00  0.00000000E+00  0.00000000E+00  0.00000000E+00
  1.88972613E+00
Force Field                                I                0
Int Atom Types                             I   N=           2
           0           0
MM charges                                 R   N=           2
  0.00000000E+00  0.00000000E+00
Integer atomic weights                     I   N=           2
          14          14
Real atomic weights                        R   N=           2
  1.40030740E+01  1.40030740E+01
Atom fragment info                         I   N=           2
           0           0
Atom residue num                           I   N=           2
           0           0
Nuclear spins                              I   N=           2
           2           2
Nuclear ZEff                               R   N=           2
 -5.60000000E+00 -3.60000000E+00
Nuclear ZNuc                               R   N=           2
  8.00000000E+00  6.00000000E+00
Nuclear QMom                               R   N=           2
  2.04400000E+00  2.04400000E+00
Nuclear GFac                               R   N=           2
  4.03761000E-01  4.03761000E-01
MicOpt                                     I   N=           2
          -1          -1
Number of contracted shells                I                4
Number of primitive shells                 I               12
Pure/Cartesian d shells                    I                0
Pure/Cartesian f shells                    I                0
Highest angular momentum                   I                1
Largest degree of contraction              I                3
Shell types                                I   N=           4
           0          -1           0          -1
Number of primitives per shell             I   N=           4
           3           3           3           3
Shell to atom map                          I   N=           4
           1           1           2           2
Primitive exponents                        R   N=          12
  9.91061690E+01  1.80523124E+01  4.88566024E+00  3.78045588E+00  8.78496645E-01
  2.85714374E-01  9.91061690E+01  1.80523124E+01  4.88566024E+00  3.78045588E+00
  8.78496645E-01  2.85714374E-01
Contraction coefficients                   R   N=          12
  1.54328967E-01  5.35328142E-01  4.44634542E-01 -9.99672292E-02  3.99512826E-01
  7.00115469E-01  1.54328967E-01  5.35328142E-01  4.44634542E-01 -9.99672292E-02
  3.99512826E-01  7.00115469E-01
P(S=P) Contraction coefficients            R   N=          12
  0.00000000E+00  0.00000000E+00  0.00000000E+00  1.55916275E-01  6.07683719E-01
  3.91957393E-01  0.00000000E+00  0.00000000E+00  0.00000000E+00  1.55916275E-01
  6.07683719E-01  3.91957393E-01
Coordinates of each shell                  R   N=          12
  0.00000000E+00  0.00000000E+00  0.00000000E+00  0.00000000E+00  0.00000000E+00
  0.00000000E+00  0.00000000E+00  0.00000000E+00  1.88972613E+00  0.00000000E+00
  0.00000000E+00  1.88972613E+00
Constraint Structure                       R   N=           6
  0.00000000E+00  0.00000000E+00  0.00000000E+00  0.00000000E+00  0.00000000E+00
  1.88972613E+00
Num ILSW                                   I              100
ILSW                                       I   N=         100
           1           0           0           0           2           0
           0           0           0           0           0          -1
           0           0           0           0           0           0
           0           0           1           0           0           0
           1           1           0           0           0           8
           0           0      100000           0          -1           0
           0           0           0           0           0           0
           0           0           0           1           0           0
           0           0           1           0           0           0
           0           0           4          41           0           0
           0           0           0           0           0           0
           0           0           0           0           0           0
           0           0           0           0           0           0
           0           0           0           0           0           0
           0           0           0           0           0           0
           0           0           0           0           0           0
           0           0           0           0
Num RLSW                                   I               41
RLSW                                       R   N=          41
  1.00000000E+00  1.00000000E+00  1.00000000E+00  1.00000000E+00  1.00000000E+00
  0.00000000E+00  0.00000000E+00  1.00000000E+00  0.00000000E+00  0.00000000E+00
  0.00000000E+00  0.00000000E+00  1.00000000E+00  0.00000000E+00  0.00000000E+00
  0.00000000E+00  0.00000000E+00  1.00000000E+00  0.00000000E+00  0.00000000E+00
  0.00000000E+00  0.00000000E+00  1.00000000E+00  0.00000000E+00  0.00000000E+00
  0.00000000E+00  0.00000000E+00  1.00000000E+00  0.00000000E+00  0.00000000E+00
  0.00000000E+00  0.00000000E+00  1.00000000E+00  0.00000000E+00  0.00000000E+00
  0.00000000E+00  0.00000000E+00  0.00000000E+00  1.00000000E+00  1.00000000E+00
  0.00000000E+00
MxBond                                     I                1
NBond                                      I   N=           2
           1           1
IBond                                      I   N=           2
           2           1
RBond                                      R   N=           2
  3.00000000E+00  3.00000000E+00
Virial Ratio                               R      2.023528051699454E+00
SCF Energy                                 R     -1.088705380325142E+02
Total Energy                               R     -1.088705380325142E+02
S**2                                       R      2.664535259100376E-15
S**2 after annihilation                    R      2.300382107023330E-13
RMS Density                                R      2.006851379134981E-09
External E-field                           R   N=          35
  0.00000000E+00  0.00000000E+00  0.00000000E+00  0.00000000E+00  0.00000000E+00
  0.00000000E+00  0.00000000E+00  0.00000000E+00  0.00000000E+00  0.00000000E+00
  0.00000000E+00  0.00000000E+00  0.00000000E+00  0.00000000E+00  0.00000000E+00
  0.00000000E+00  0.00000000E+00  0.00000000E+00  0.00000000E+00  0.00000000E+00
  0.00000000E+00  0.00000000E+00  0.00000000E+00  0.00000000E+00  0.00000000E+00
  0.00000000E+00  0.00000000E+00  0.00000000E+00  0.00000000E+00  0.00000000E+00
  0.00000000E+00  0.00000000E+00  0.00000000E+00  0.00000000E+00  0.00000000E+00
IOpCl                                      I                1
IROHF                                      I                0
Alpha Orbital Energies                     R   N=          10
 -2.08283434E+01 -1.04167592E+01 -1.59654952E+00 -7.38159680E-01 -7.14531896E-01
 -7.14531896E-01 -4.20875461E-01  3.96247360E-01  3.96247360E-01  1.46700267E+00
Beta Orbital Energies                      R   N=          10
 -2.08283434E+01 -1.04167592E+01 -1.59654952E+00 -7.38159680E-01 -7.14531896E-01
 -7.14531896E-01 -4.20875461E-01  3.96247360E-01  3.96247360E-01  1.46700267E+00
Alpha MO coefficients                      R   N=         100
  1.00661606E+00 -4.12709081E-02 -5.25059821E-16  6.88848398E-16 -1.19553597E-02
 -4.08854835E-04  2.08162189E-02  9.18046439E-16 -1.07577690E-15 -1.23546315E-02
 -3.08653640E-04 -7.43279624E-02 -2.24371787E-17  3.23645890E-16 -3.78848035E-02
  9.61981647E-01  1.70560461E-01 -1.08142168E-16 -2.98895290E-16 -5.35139086E-02
 -1.95153436E-01  8.41189510E-01  2.08318381E-16  6.86493814E-16  3.72718967E-01
 -1.59730092E-01  3.20827291E-02  3.98555711E-16  5.30667238E-16 -1.44674507E-01
  9.99043083E-02 -5.70423584E-01 -6.22260649E-15  5.72478974E-15  7.98584801E-01
 -1.29597554E-01  1.58834885E-01 -2.97265047E-15  1.89294840E-15 -1.02326193E-01
  8.55931452E-16 -4.78274290E-15  8.40188238E-01 -1.23536655E-01  6.82435524E-15
 -1.12867469E-15  1.50583222E-15  3.10772700E-01 -4.56943077E-02 -5.45123091E-16
 -5.25247075E-16  2.73889264E-15  1.23536655E-01  8.40188238E-01 -4.24240611E-15
  1.23076852E-15 -2.16688066E-15  4.56943077E-02  3.10772700E-01 -3.16110759E-16
  2.35778603E-02 -7.77972843E-02  8.02913178E-16  1.89984312E-15 -2.17513318E-01
 -2.50821405E-01  8.71779686E-01 -1.48415735E-15 -9.25456584E-16  5.86782219E-01
  7.69697656E-17 -4.02698233E-16  1.99439940E-03 -6.38375537E-01 -2.62346695E-16
 -3.83738422E-16  1.43230463E-15 -3.17073717E-03  1.01490255E+00  5.57139189E-16
  1.41485807E-17 -1.47409636E-16 -6.38375537E-01 -1.99439940E-03 -5.23105449E-17
 -2.73667617E-16  1.37064086E-15  1.01490255E+00  3.17073717E-03  1.60741378E-15
  8.71672361E-02 -1.54419908E+00 -1.15007425E-16  4.40945924E-17 -1.27175692E+00
 -1.97145380E-01  1.61710612E+00  3.12962252E-16 -1.51462981E-16 -1.43672610E+00
Beta MO coefficients                       R   N=         100
  1.00661606E+00 -4.12709081E-02 -5.25059821E-16  6.88848398E-16 -1.19553597E-02
 -4.08854835E-04  2.08162189E-02  9.18046439E-16 -1.07577690E-15 -1.23546315E-02
 -3.08653640E-04 -7.43279624E-02 -2.24371787E-17  3.23645890E-16 -3.78848035E-02
  9.61981647E-01  1.70560461E-01 -1.08142168E-16 -2.98895290E-16 -5.35139086E-02
 -1.95153436E-01  8.41189510E-01  2.08318381E-16  6.86493814E-16  3.72718967E-01
 -1.59730092E-01  3.20827291E-02  3.98555711E-16  5.30667238E-16 -1.44674507E-01
  9.99043083E-02 -5.70423584E-01 -6.22260649E-15  5.72478974E-15  7.98584801E-01
 -1.29597554E-01  1.58834885E-01 -2.97265047E-15  1.89294840E-15 -1.02326193E-01
  8.55931452E-16 -4.78274290E-15  8.40188238E-01 -1.23536655E-01  6.82435524E-15
 -1.12867469E-15  1.50583222E-15  3.10772700E-01 -4.56943077E-02 -5.45123091E-16
 -5.25247075E-16  2.73889264E-15  1.23536655E-01  8.40188238E-01 -4.24240611E-15
  1.23076852E-15 -2.16688066E-15  4.56943077E-02  3.10772700E-01 -3.16110759E-16
  2.35778603E-02 -7.77972843E-02  8.02913178E-16  1.89984312E-15 -2.17513318E-01
 -2.50821405E-01  8.71779686E-01 -1.48415735E-15 -9.25456584E-16  5.86782219E-01
  7.69697656E-17 -4.02698233E-16  1.99439940E-03 -6.38375537E-01 -2.62346695E-16
 -3.83738422E-16  1.43230463E-15 -3.17073717E-03  1.01490255E+00  5.57139189E-16
  1.41485807E-17 -1.47409636E-16 -6.38375537E-01 -1.99439940E-03 -5.23105449E-17
 -2.73667617E-16  1.37064086E-15  1.01490255E+00  3.17073717E-03  1.60741378E-15
  8.71672361E-02 -1.54419908E+00 -1.15007425E-16  4.40945924E-17 -1.27175692E+00
 -1.97145380E-01  1.61710612E+00  3.12962252E-16 -1.51462981E-16 -1.43672610E+00
Total SCF Density                          R   N=          55
  2.12379527E+00 -5.29008214E-01  2.09252641E+00 -1.03531744E-15  1.11579603E-17
  1.44235516E+00  1.25802882E-15  7.31556845E-18  8.60422844E-16  1.44235516E+00
 -2.02131743E-02 -2.43546131E-01  3.00997164E-16 -2.72325342E-17  1.65109469E+00
  2.32044224E-02 -2.24819629E-01 -4.91703197E-16  3.12951816E-16 -2.89823347E-01
  2.06125892E+00  1.02126461E-01 -2.89948234E-01  1.40203302E-15  1.30098569E-15
 -1.15066481E-01 -1.60605348E-01  1.63156366E+00  1.51279927E-15  1.51069897E-15
  5.33504978E-01 -6.58306742E-13  3.51012769E-17  5.89834057E-16 -2.76721832E-15
  1.97335282E-01 -2.44282764E-15  1.14987814E-15  6.57709998E-13  5.33504978E-01
  6.09390789E-16  9.80212614E-17 -2.60938279E-15 -3.43475248E-16  1.97335282E-01
  3.88522310E-02 -2.08984000E-01  1.17672559E-15  4.11200377E-16 -5.22193909E-01
 -3.24563582E-01  9.62531527E-01 -1.62753369E-15 -1.71511476E-15  7.57462222E-01
Spin SCF Density                           R   N=          55
  0.00000000E+00  0.00000000E+00  0.00000000E+00  0.00000000E+00  0.00000000E+00
  0.00000000E+00  0.00000000E+00  0.00000000E+00  0.00000000E+00  0.00000000E+00
  0.00000000E+00  0.00000000E+00  0.00000000E+00  0.00000000E+00  0.00000000E+00
  0.00000000E+00  0.00000000E+00  0.00000000E+00  0.00000000E+00  0.00000000E+00
  0.00000000E+00  0.00000000E+00  0.00000000E+00  0.00000000E+00  0.00000000E+00
  0.00000000E+00  0.00000000E+00  0.00000000E+00  0.00000000E+00  0.00000000E+00
  0.00000000E+00  0.00000000E+00  0.00000000E+00  0.00000000E+00  0.00000000E+00
  0.00000000E+00  0.00000000E+00  0.00000000E+00  0.00000000E+00  0.00000000E+00
  0.00000000E+00  0.00000000E+00  0.00000000E+00  0.00000000E+00  0.00000000E+00
  0.00000000E+00  0.00000000E+00  0.00000000E+00  0.00000000E+00  0.00000000E+00
  0.00000000E+00  0.00000000E+00  0.00000000E+00  0.00000000E+00  0.00000000E+00
Mulliken Charges                           R   N=           2
 -8.66997079E-01  8.66997079E-01
Cartesian Gradient                         R   N=           6
  0.00000000E+00  0.00000000E+00  0.00000000E+00  0.00000000E+00  0.00000000E+00
  0.00000000E+00
Dipole Moment                              R   N=           3
  2.85814886E-15  1.91066182E-15  8.88559138E-01
Quadrupole Moment                          R   N=           6
  2.40859435E-01  2.40859435E-01 -4.81718870E-01 -2.06453315E-16  6.94092930E-15
  6.53119433E-15
Anisotropic Hyperfine tensors              R   N=          12
  0.00000000E+00  0.00000000E+00  0.00000000E+00  0.00000000E+00  0.00000000E+00
  0.00000000E+00  0.00000000E+00  0.00000000E+00  0.00000000E+00  0.00000000E+00
  0.00000000E+00  0.00000000E+00
Isotropic Hyperfine splittings             R   N=           2
  0.00000000E+00  0.00000000E+00
QEq coupling tensors                       R   N=          12
  9.83870966E-02 -1.35532563E-16  9.83870966E-02  9.57907432E-17  1.91589256E-17
 -1.96774193E-01 -3.81589584E-01 -1.35532563E-16 -3.81589584E-01 -4.88404460E-15
 -5.45772834E-15  7.63179167E-01
