run                                                                     
SP        UHF                                                         Gen                 
Number of atoms                            I                2
Info1-9                                    I   N=           9
          32          32           0           0           0         110
           1           1           2
Charge                                     I                0
Multiplicity                               I                1
Number of electrons                        I               14
Number of alpha electrons                  I                7
Number of beta electrons                   I                7
Number of basis functions                  I               10
Number of independent functions            I               10
Number of point charges in /Mol/           I                0
Number of translation vectors              I                0
Atomic numbers                             I   N=           2
           8           6
Nuclear charges                            R   N=           2
  8.00000000E+00  6.00000000E+00
Current cartesian coordinates              R   N=           6
  0.00000000E+00  0.00000000E+00  0.00000000E+00  0.00000000E+00  0.00000000E+00
  1.88972613E+00
Force Field                                I                0
Int Atom Types                             I   N=           2
           0           0
MM charges                                 R   N=           2
  0.00000000E+00  0.00000000E+00
Integer atomic weights                     I   N=           2
          14          14
Real atomic weights                        R   N=           2
  1.40030740E+01  1.40030740E+01
Atom fragment info                         I   N=           2
           0           0
Atom residue num                           I   N=           2
           0           0
Nuclear spins                              I   N=           2
           2           2
Nuclear ZEff                               R   N=           2
 -5.60000000E+00 -3.60000000E+00
Nuclear ZNuc                               R   N=           2
  8.00000000E+00  6.00000000E+00
Nuclear QMom                               R   N=           2
  2.04400000E+00  2.04400000E+00
Nuclear GFac                               R   N=           2
  4.03761000E-01  4.03761000E-01
MicOpt                                     I   N=           2
          -1          -1
Number of contracted shells                I                4
Number of primitive shells                 I               12
Pure/Cartesian d shells                    I                0
Pure/Cartesian f shells                    I                0
Highest angular momentum                   I                1
Largest degree of contraction              I                3
Shell types                                I   N=           4
           0          -1           0          -1
Number of primitives per shell             I   N=           4
           3           3           3           3
Shell to atom map                          I   N=           4
           1           1           2           2
Primitive exponents                        R   N=          12
  1.30709321E+02  2.38088661E+01  6.44360831E+00  5.03315132E+00  1.16959613E+00
  3.80388960E-01  7.16168374E+01  1.30450963E+01  3.53051216E+00  2.94124936E+00
  6.83483096E-01  2.22289916E-01
Contraction coefficients                   R   N=          12
  1.54328967E-01  5.35328142E-01  4.44634542E-01 -9.99672292E-02  3.99512826E-01
  7.00115469E-01  1.54328967E-01  5.35328142E-01  4.44634542E-01 -9.99672292E-02
  3.99512826E-01  7.00115469E-01
P(S=P) Contraction coefficients            R   N=          12
  0.00000000E+00  0.00000000E+00  0.00000000E+00  1.55916275E-01  6.07683719E-01
  3.91957393E-01  0.00000000E+00  0.00000000E+00  0.00000000E+00  1.55916275E-01
  6.07683719E-01  3.91957393E-01
Coordinates of each shell                  R   N=          12
  0.00000000E+00  0.00000000E+00  0.00000000E+00  0.00000000E+00  0.00000000E+00
  0.00000000E+00  0.00000000E+00  0.00000000E+00  1.88972613E+00  0.00000000E+00
  0.00000000E+00  1.88972613E+00
Constraint Structure                       R   N=           6
  0.00000000E+00  0.00000000E+00  0.00000000E+00  0.00000000E+00  0.00000000E+00
  1.88972613E+00
Num ILSW                                   I              100
ILSW                                       I   N=         100
           1           0           0           0           2           0
           0           0           0           0           0          -1
           0           0           0           0           0           0
           0           0           1           0           0           0
           1           1           0           0           0           8
           0           0      100000           0          -1           0
           0           0           0           0           0           0
           0           0           0           1           0           0
           0           0           1           0           0           0
           0           0           4          41           0           0
           0           0           0           0           0           0
           0           0           0           0           0           0
           0           0           0           0           0           0
           0           0           0           0           0           0
           0           0           0           0           0           0
           0           0           0           0           0           0
           0           0           0           0
Num RLSW                                   I               41
RLSW                                       R   N=          41
  1.00000000E+00  1.00000000E+00  1.00000000E+00  1.00000000E+00  1.00000000E+00
  0.00000000E+00  0.00000000E+00  1.00000000E+00  0.00000000E+00  0.00000000E+00
  0.00000000E+00  0.00000000E+00  1.00000000E+00  0.00000000E+00  0.00000000E+00
  0.00000000E+00  0.00000000E+00  1.00000000E+00  0.00000000E+00  0.00000000E+00
  0.00000000E+00  0.00000000E+00  1.00000000E+00  0.00000000E+00  0.00000000E+00
  0.00000000E+00  0.00000000E+00  1.00000000E+00  0.00000000E+00  0.00000000E+00
  0.00000000E+00  0.00000000E+00  1.00000000E+00  0.00000000E+00  0.00000000E+00
  0.00000000E+00  0.00000000E+00  0.00000000E+00  1.00000000E+00  1.00000000E+00
  0.00000000E+00
MxBond                                     I                1
NBond                                      I   N=           2
           1           1
IBond                                      I   N=           2
           2           1
RBond                                      R   N=           2
  3.00000000E+00  3.00000000E+00
Virial Ratio                               R      2.002780610372085E+00
SCF Energy                                 R     -1.111436117085278E+02
Total Energy                               R     -1.111436117085278E+02
S**2                                       R      7.105427357601002E-15
S**2 after annihilation                    R      1.225686219186184E-13
RMS Density                                R      2.715583221986325E-09
External E-field                           R   N=          35
  0.00000000E+00  0.00000000E+00  0.00000000E+00  0.00000000E+00  0.00000000E+00
  0.00000000E+00  0.00000000E+00  0.00000000E+00  0.00000000E+00  0.00000000E+00
  0.00000000E+00  0.00000000E+00  0.00000000E+00  0.00000000E+00  0.00000000E+00
  0.00000000E+00  0.00000000E+00  0.00000000E+00  0.00000000E+00  0.00000000E+00
  0.00000000E+00  0.00000000E+00  0.00000000E+00  0.00000000E+00  0.00000000E+00
  0.00000000E+00  0.00000000E+00  0.00000000E+00  0.00000000E+00  0.00000000E+00
  0.00000000E+00  0.00000000E+00  0.00000000E+00  0.00000000E+00  0.00000000E+00
IOpCl                                      I                1
IROHF                                      I                0
Alpha Orbital Energies                     R   N=          10
 -2.04936191E+01 -1.11151085E+01 -1.57552351E+00 -7.21132531E-01 -6.42411348E-01
 -6.42411348E-01 -4.55420092E-01  3.74476998E-01  3.74476998E-01  1.29137436E+00
Beta Orbital Energies                      R   N=          10
 -2.04936191E+01 -1.11151085E+01 -1.57552351E+00 -7.21132531E-01 -6.42411348E-01
 -6.42411348E-01 -4.55420092E-01  3.74476998E-01  3.74476998E-01  1.29137436E+00
Alpha MO coefficients                      R   N=         100
  9.93871575E-01  3.21245678E-02 -2.63369143E-16 -3.69160292E-16  9.37202942E-03
  5.71087406E-05 -1.25618780E-02 -1.01926865E-17  6.46050929E-16  9.44064349E-03
 -1.27930925E-03 -6.56224004E-03  4.97139518E-16  2.11944982E-16  2.01258061E-03
  9.93369316E-01  2.64335290E-02  4.69382856E-17 -4.15526143E-16 -7.78737973E-03
 -2.24383620E-01  7.47741511E-01 -2.94414515E-17  1.44811467E-16  2.80694783E-01
 -1.51809556E-01  2.01277858E-01 -1.72875748E-17  3.99241790E-16 -1.69873892E-01
  1.30648180E-01 -6.48752330E-01  8.91265292E-15  3.05498218E-16  7.19411185E-01
 -1.44676698E-01  3.81761575E-01  5.81502452E-15  1.84811023E-15 -8.08626888E-02
  5.76121780E-16 -2.96194254E-15 -3.84507874E-01  6.62919351E-01  4.14777596E-15
 -1.00303800E-16 -6.47037362E-16 -2.22069153E-01  3.82863261E-01 -1.84023232E-15
 -1.29895026E-15  6.68648396E-15  6.62919351E-01  3.84507874E-01 -8.57434400E-15
  9.85387844E-16 -1.64315326E-15  3.82863261E-01  2.22069153E-01  2.45275819E-15
  1.99687028E-02 -4.79445373E-02 -3.09145185E-15  2.36570016E-15 -3.58822852E-01
 -1.75915935E-01  8.45445302E-01 -4.76728875E-16 -1.93193973E-15  5.58477017E-01
 -1.47669815E-17  1.22122554E-16 -5.93419559E-01  4.17474834E-01  5.48715807E-16
  2.43950245E-16 -1.07575571E-15  7.83564104E-01 -5.51242860E-01 -6.23025337E-16
  5.29735455E-17  4.32436737E-16 -4.17474834E-01 -5.93419559E-01 -9.71138339E-16
  5.68390453E-17  2.45758903E-16  5.51242860E-01  7.83564104E-01  3.91368332E-16
 -1.37890887E-01  1.49810438E+00 -1.34059780E-16  1.82471729E-16  1.06408549E+00
  1.04174988E-01 -1.31367767E+00  4.06775796E-17  1.15103994E-16  1.44252135E+00
Beta MO coefficients                       R   N=         100
  9.93871575E-01  3.21245678E-02 -2.63369143E-16 -3.69160292E-16  9.37202942E-03
  5.71087406E-05 -1.25618780E-02 -1.01926865E-17  6.46050929E-16  9.44064349E-03
 -1.27930925E-03 -6.56224004E-03  4.97139518E-16  2.11944982E-16  2.01258061E-03
  9.93369316E-01  2.64335290E-02  4.69382856E-17 -4.15526143E-16 -7.78737973E-03
 -2.24383620E-01  7.47741511E-01 -2.94414515E-17  1.44811467E-16  2.80694783E-01
 -1.51809556E-01  2.01277858E-01 -1.72875748E-17  3.99241790E-16 -1.69873892E-01
  1.30648180E-01 -6.48752330E-01  8.91265292E-15  3.05498218E-16  7.19411185E-01
 -1.44676698E-01  3.81761575E-01  5.81502452E-15  1.84811023E-15 -8.08626888E-02
  5.76121780E-16 -2.96194254E-15 -3.84507874E-01  6.62919351E-01  4.14777596E-15
 -1.00303800E-16 -6.47037362E-16 -2.22069153E-01  3.82863261E-01 -1.84023232E-15
 -1.29895026E-15  6.68648396E-15  6.62919351E-01  3.84507874E-01 -8.57434400E-15
  9.85387844E-16 -1.64315326E-15  3.82863261E-01  2.22069153E-01  2.45275819E-15
  1.99687028E-02 -4.79445373E-02 -3.09145185E-15  2.36570016E-15 -3.58822852E-01
 -1.75915935E-01  8.45445302E-01 -4.76728875E-16 -1.93193973E-15  5.58477017E-01
 -1.47669815E-17  1.22122554E-16 -5.93419559E-01  4.17474834E-01  5.48715807E-16
  2.43950245E-16 -1.07575571E-15  7.83564104E-01 -5.51242860E-01 -6.23025337E-16
  5.29735455E-17  4.32436737E-16 -4.17474834E-01 -5.93419559E-01 -9.71138339E-16
  5.68390453E-17  2.45758903E-16  5.51242860E-01  7.83564104E-01  3.91368332E-16
 -1.37890887E-01  1.49810438E+00 -1.34059780E-16  1.82471729E-16  1.06408549E+00
  1.04174988E-01 -1.31367767E+00  4.06775796E-17  1.15103994E-16  1.44252135E+00
Total SCF Density                          R   N=          55
  2.11119610E+00 -4.43121117E-01  1.96674136E+00 -4.71435889E-16 -1.92267694E-16
  1.17461674E+00 -8.60087926E-16  7.81786442E-16 -3.66373598E-15  1.17461674E+00
  6.63064852E-02 -4.78682162E-01  4.64925729E-16 -2.27747136E-15  1.45037548E+00
  2.08698993E-02 -3.54752946E-02  8.88960640E-16  8.11360423E-17 -1.63143512E-01
  2.12341301E+00  1.81534728E-02 -2.76552787E-01 -8.22170324E-17  2.19069151E-15
  5.54231328E-02 -4.16515336E-01  1.80377793E+00  2.37264567E-16 -1.09090226E-15
  6.78389605E-01  4.38538095E-15  2.91413810E-16 -6.17280530E-16  2.65875586E-15
  3.91797971E-01  1.37606582E-15 -8.66972937E-16 -1.77635684E-15  6.78389605E-01
  3.64798526E-15 -4.40881284E-16 -2.95834657E-15  2.72004641E-15  3.91797971E-01
  9.61943338E-02 -2.01966891E-01 -2.29995325E-16  1.97985938E-15 -6.12355497E-01
 -1.36985569E-01  8.13550419E-01  1.22748830E-15 -2.89349654E-15  6.94884521E-01
Spin SCF Density                           R   N=          55
  0.00000000E+00  0.00000000E+00  0.00000000E+00  0.00000000E+00  0.00000000E+00
  0.00000000E+00  0.00000000E+00  0.00000000E+00  0.00000000E+00  0.00000000E+00
  0.00000000E+00  0.00000000E+00  0.00000000E+00  0.00000000E+00  0.00000000E+00
  0.00000000E+00  0.00000000E+00  0.00000000E+00  0.00000000E+00  0.00000000E+00
  0.00000000E+00  0.00000000E+00  0.00000000E+00  0.00000000E+00  0.00000000E+00
  0.00000000E+00  0.00000000E+00  0.00000000E+00  0.00000000E+00  0.00000000E+00
  0.00000000E+00  0.00000000E+00  0.00000000E+00  0.00000000E+00  0.00000000E+00
  0.00000000E+00  0.00000000E+00  0.00000000E+00  0.00000000E+00  0.00000000E+00
  0.00000000E+00  0.00000000E+00  0.00000000E+00  0.00000000E+00  0.00000000E+00
  0.00000000E+00  0.00000000E+00  0.00000000E+00  0.00000000E+00  0.00000000E+00
  0.00000000E+00  0.00000000E+00  0.00000000E+00  0.00000000E+00  0.00000000E+00
Mulliken Charges                           R   N=           2
 -2.34495747E-01  2.34495747E-01
Cartesian Gradient                         R   N=           6
  0.00000000E+00  0.00000000E+00  0.00000000E+00  0.00000000E+00  0.00000000E+00
  0.00000000E+00
Dipole Moment                              R   N=           3
 -3.68703918E-15  2.70543938E-15 -1.75167348E-01
Quadrupole Moment                          R   N=           6
  8.54852563E-01  8.54852563E-01 -1.70970513E+00 -1.39431157E-15 -9.42695441E-15
  1.08474346E-14
Anisotropic Hyperfine tensors              R   N=          12
  0.00000000E+00  0.00000000E+00  0.00000000E+00  0.00000000E+00  0.00000000E+00
  0.00000000E+00  0.00000000E+00  0.00000000E+00  0.00000000E+00  0.00000000E+00
  0.00000000E+00  0.00000000E+00
Isotropic Hyperfine splittings             R   N=           2
  0.00000000E+00  0.00000000E+00
QEq coupling tensors                       R   N=          12
 -1.49788709E-01 -1.45623366E-14 -1.49788709E-01  1.44895790E-16 -8.41152750E-15
  2.99577419E-01 -1.20546925E-01  5.35427720E-15 -1.20546925E-01  2.65730372E-15
 -6.42468558E-15  2.41093850E-01
