run                                                                     
SP        UHF                                                         Gen                 
Number of atoms                            I                2
Info1-9                                    I   N=           9
          32          32           0           0           0         110
           1           1           2
Charge                                     I                0
Multiplicity                               I                1
Number of electrons                        I               14
Number of alpha electrons                  I                7
Number of beta electrons                   I                7
Number of basis functions                  I               10
Number of independent functions            I               10
Number of point charges in /Mol/           I                0
Number of translation vectors              I                0
Atomic numbers                             I   N=           2
           6           8
Nuclear charges                            R   N=           2
  6.00000000E+00  8.00000000E+00
Current cartesian coordinates              R   N=           6
  0.00000000E+00  0.00000000E+00  0.00000000E+00  0.00000000E+00  0.00000000E+00
  1.88972613E+00
Force Field                                I                0
Int Atom Types                             I   N=           2
           0           0
MM charges                                 R   N=           2
  0.00000000E+00  0.00000000E+00
Integer atomic weights                     I   N=           2
          14          14
Real atomic weights                        R   N=           2
  1.40030740E+01  1.40030740E+01
Atom fragment info                         I   N=           2
           0           0
Atom residue num                           I   N=           2
           0           0
Nuclear spins                              I   N=           2
           2           2
Nuclear ZEff                               R   N=           2
 -3.60000000E+00 -5.60000000E+00
Nuclear ZNuc                               R   N=           2
  6.00000000E+00  8.00000000E+00
Nuclear QMom                               R   N=           2
  2.04400000E+00  2.04400000E+00
Nuclear GFac                               R   N=           2
  4.03761000E-01  4.03761000E-01
MicOpt                                     I   N=           2
          -1          -1
Number of contracted shells                I                4
Number of primitive shells                 I               12
Pure/Cartesian d shells                    I                0
Pure/Cartesian f shells                    I                0
Highest angular momentum                   I                1
Largest degree of contraction              I                3
Shell types                                I   N=           4
           0          -1           0          -1
Number of primitives per shell             I   N=           4
           3           3           3           3
Shell to atom map                          I   N=           4
           1           1           2           2
Primitive exponents                        R   N=          12
  9.91061690E+01  1.80523124E+01  4.88566024E+00  3.78045588E+00  8.78496645E-01
  2.85714374E-01  9.91061690E+01  1.80523124E+01  4.88566024E+00  3.78045588E+00
  8.78496645E-01  2.85714374E-01
Contraction coefficients                   R   N=          12
  1.54328967E-01  5.35328142E-01  4.44634542E-01 -9.99672292E-02  3.99512826E-01
  7.00115469E-01  1.54328967E-01  5.35328142E-01  4.44634542E-01 -9.99672292E-02
  3.99512826E-01  7.00115469E-01
P(S=P) Contraction coefficients            R   N=          12
  0.00000000E+00  0.00000000E+00  0.00000000E+00  1.55916275E-01  6.07683719E-01
  3.91957393E-01  0.00000000E+00  0.00000000E+00  0.00000000E+00  1.55916275E-01
  6.07683719E-01  3.91957393E-01
Coordinates of each shell                  R   N=          12
  0.00000000E+00  0.00000000E+00  0.00000000E+00  0.00000000E+00  0.00000000E+00
  0.00000000E+00  0.00000000E+00  0.00000000E+00  1.88972613E+00  0.00000000E+00
  0.00000000E+00  1.88972613E+00
Constraint Structure                       R   N=           6
  0.00000000E+00  0.00000000E+00  0.00000000E+00  0.00000000E+00  0.00000000E+00
  1.88972613E+00
Num ILSW                                   I              100
ILSW                                       I   N=         100
           1           0           0           0           2           0
           0           0           0           0           0          -1
           0           0           0           0           0           0
           0           0           1           0           0           0
           1           1           0           0           0           8
           0           0      100000           0          -1           0
           0           0           0           0           0           0
           0           0           0           1           0           0
           0           0           1           0           0           0
           0           0           4          41           0           0
           0           0           0           0           0           0
           0           0           0           0           0           0
           0           0           0           0           0           0
           0           0           0           0           0           0
           0           0           0           0           0           0
           0           0           0           0           0           0
           0           0           0           0
Num RLSW                                   I               41
RLSW                                       R   N=          41
  1.00000000E+00  1.00000000E+00  1.00000000E+00  1.00000000E+00  1.00000000E+00
  0.00000000E+00  0.00000000E+00  1.00000000E+00  0.00000000E+00  0.00000000E+00
  0.00000000E+00  0.00000000E+00  1.00000000E+00  0.00000000E+00  0.00000000E+00
  0.00000000E+00  0.00000000E+00  1.00000000E+00  0.00000000E+00  0.00000000E+00
  0.00000000E+00  0.00000000E+00  1.00000000E+00  0.00000000E+00  0.00000000E+00
  0.00000000E+00  0.00000000E+00  1.00000000E+00  0.00000000E+00  0.00000000E+00
  0.00000000E+00  0.00000000E+00  1.00000000E+00  0.00000000E+00  0.00000000E+00
  0.00000000E+00  0.00000000E+00  0.00000000E+00  1.00000000E+00  1.00000000E+00
  0.00000000E+00
MxBond                                     I                1
NBond                                      I   N=           2
           1           1
IBond                                      I   N=           2
           2           1
RBond                                      R   N=           2
  3.00000000E+00  3.00000000E+00
Virial Ratio                               R      2.023528051699453E+00
SCF Energy                                 R     -1.088705380325141E+02
Total Energy                               R     -1.088705380325141E+02
S**2                                       R     -2.664535259100376E-15
S**2 after annihilation                    R     -1.731947918415240E-13
RMS Density                                R      2.006850464301763E-09
External E-field                           R   N=          35
  0.00000000E+00  0.00000000E+00  0.00000000E+00  0.00000000E+00  0.00000000E+00
  0.00000000E+00  0.00000000E+00  0.00000000E+00  0.00000000E+00  0.00000000E+00
  0.00000000E+00  0.00000000E+00  0.00000000E+00  0.00000000E+00  0.00000000E+00
  0.00000000E+00  0.00000000E+00  0.00000000E+00  0.00000000E+00  0.00000000E+00
  0.00000000E+00  0.00000000E+00  0.00000000E+00  0.00000000E+00  0.00000000E+00
  0.00000000E+00  0.00000000E+00  0.00000000E+00  0.00000000E+00  0.00000000E+00
  0.00000000E+00  0.00000000E+00  0.00000000E+00  0.00000000E+00  0.00000000E+00
IOpCl                                      I                1
IROHF                                      I                0
Alpha Orbital Energies                     R   N=          10
 -2.08283434E+01 -1.04167592E+01 -1.59654952E+00 -7.38159680E-01 -7.14531896E-01
 -7.14531896E-01 -4.20875461E-01  3.96247360E-01  3.96247360E-01  1.46700267E+00
Beta Orbital Energies                      R   N=          10
 -2.08283434E+01 -1.04167592E+01 -1.59654952E+00 -7.38159680E-01 -7.14531896E-01
 -7.14531896E-01 -4.20875461E-01  3.96247360E-01  3.96247360E-01  1.46700267E+00
Alpha MO coefficients                      R   N=         100
 -4.08854835E-04  2.08162189E-02  1.97959442E-16 -4.74175791E-16  1.23546315E-02
  1.00661606E+00 -4.12709081E-02  1.35409029E-16  3.30005651E-16  1.19553597E-02
  9.61981647E-01  1.70560461E-01  3.62219897E-16 -1.04316169E-16  5.35139086E-02
 -3.08653640E-04 -7.43279624E-02  2.66594704E-16 -3.74769844E-16  3.78848035E-02
 -1.59730092E-01  3.20827291E-02 -6.25936019E-16  4.24742648E-16  1.44674507E-01
 -1.95153436E-01  8.41189510E-01 -2.89645742E-16  4.42735514E-16 -3.72718967E-01
  1.29597554E-01 -1.58834885E-01  1.52205190E-15  4.93549787E-15 -1.02326193E-01
 -9.99043083E-02  5.70423584E-01  6.18693773E-15  1.27121839E-14  7.98584801E-01
 -2.24190935E-15  3.25029052E-15  1.91324999E-01  2.49123234E-01  1.20925568E-15
  1.62370352E-15 -9.31059517E-15  5.17255903E-01  6.73516080E-01 -1.25002881E-14
  1.12171532E-15 -3.48408031E-15  2.49123234E-01 -1.91324999E-01  1.78369717E-15
 -4.62563299E-16  2.41290054E-15  6.73516080E-01 -5.17255903E-01  1.92472041E-15
 -2.50821405E-01  8.71779686E-01 -4.27894169E-16  3.65753008E-16 -5.86782219E-01
  2.35778603E-02 -7.77972843E-02  2.24782116E-15 -2.50949100E-15  2.17513318E-01
 -1.78444052E-16  6.71563368E-16  1.01193542E+00  7.76141264E-02 -1.86619792E-16
 -3.44505353E-17 -2.87983501E-16 -6.36509205E-01 -4.88194256E-02  3.21689117E-16
  2.00276937E-16 -1.11709646E-15 -7.76141264E-02  1.01193542E+00  5.05455187E-16
 -3.45119951E-17  1.81761295E-16  4.88194256E-02 -6.36509205E-01  6.47174302E-17
 -1.97145380E-01  1.61710612E+00 -1.51859386E-16  3.16132447E-17  1.43672610E+00
  8.71672361E-02 -1.54419908E+00  3.29928639E-17 -9.93489059E-18  1.27175692E+00
Beta MO coefficients                       R   N=         100
 -4.08854835E-04  2.08162189E-02  1.97959442E-16 -4.74175791E-16  1.23546315E-02
  1.00661606E+00 -4.12709081E-02  1.35409029E-16  3.30005651E-16  1.19553597E-02
  9.61981647E-01  1.70560461E-01  3.62219897E-16 -1.04316169E-16  5.35139086E-02
 -3.08653640E-04 -7.43279624E-02  2.66594704E-16 -3.74769844E-16  3.78848035E-02
 -1.59730092E-01  3.20827291E-02 -6.25936019E-16  4.24742648E-16  1.44674507E-01
 -1.95153436E-01  8.41189510E-01 -2.89645742E-16  4.42735514E-16 -3.72718967E-01
  1.29597554E-01 -1.58834885E-01  1.52205190E-15  4.93549787E-15 -1.02326193E-01
 -9.99043083E-02  5.70423584E-01  6.18693773E-15  1.27121839E-14  7.98584801E-01
 -2.24190935E-15  3.25029052E-15  1.91324999E-01  2.49123234E-01  1.20925568E-15
  1.62370352E-15 -9.31059517E-15  5.17255903E-01  6.73516080E-01 -1.25002881E-14
  1.12171532E-15 -3.48408031E-15  2.49123234E-01 -1.91324999E-01  1.78369717E-15
 -4.62563299E-16  2.41290054E-15  6.73516080E-01 -5.17255903E-01  1.92472041E-15
 -2.50821405E-01  8.71779686E-01 -4.27894169E-16  3.65753008E-16 -5.86782219E-01
  2.35778603E-02 -7.77972843E-02  2.24782116E-15 -2.50949100E-15  2.17513318E-01
 -1.78444052E-16  6.71563368E-16  1.01193542E+00  7.76141264E-02 -1.86619792E-16
 -3.44505353E-17 -2.87983501E-16 -6.36509205E-01 -4.88194256E-02  3.21689117E-16
  2.00276937E-16 -1.11709646E-15 -7.76141264E-02  1.01193542E+00  5.05455187E-16
 -3.45119951E-17  1.81761295E-16  4.88194256E-02 -6.36509205E-01  6.47174302E-17
 -1.97145380E-01  1.61710612E+00 -1.51859386E-16  3.16132447E-17  1.43672610E+00
  8.71672361E-02 -1.54419908E+00  3.29928639E-17 -9.93489059E-18  1.27175692E+00
Cartesian Gradient                         R   N=           6
  0.00000000E+00  0.00000000E+00  0.00000000E+00  0.00000000E+00  0.00000000E+00
  0.00000000E+00
